<UPF version="2.0.1">
  <PP_INFO>

 This pseudopotential file has been produced using the code
 ONCVPSP  (Optimized Norm-Conservinng Vanderbilt PSeudopotential)
 scalar-relativistic version 3.2.2 08/07/2015 by D. R. Hamann
 The code is available through a link at URL www.mat-simresearch.com.
 Documentation with the package provides a full discription of the
 input data below.


 While it is not required under the terms of the GNU GPL, it is
 suggested that you cite D. R. Hamann, Phys. Rev. B 88, 085117 (2013)
 in any publication using these pseudopotentials.

    <PP_INPUTFILE>
# ATOM AND REFERENCE CONFIGURATION
# atsym  z   nc   nv     iexc    psfile
  Ar 18.00    3    2       4      upf
#
#   n    l    f        energy (Ha)
    1    0    2.00
    2    0    2.00
    2    1    6.00
    3    0    2.00
    3    1    6.00
#
# PSEUDOPOTENTIAL AND OPTIMIZATION
# lmax
    1
#
#   l,   rc,     ep,   ncon, nbas, qcut
    0    3.20   -0.89    5    8    6.36
    1    1.74   -0.38    5    8    6.78
#
# LOCAL POTENTIAL
# lloc, lpopt,  rc(5),   dvloc0
    4    5      1.68       0.00
#
# VANDERBILT-KLEINMAN-BYLANDER PROJECTORs
# l, nproj, debl
    0    2    0.8809
    1    2    3.8207
#
# MODEL CORE CHARGE
# icmod, fcfact
    0    0.00
#
# LOG DERIVATIVE ANALYSIS
# epsh1, epsh2, depsh
   -5.00    3.00    0.02
#
# OUTPUT GRID
# rlmax, drl
    6.00    0.01
#
# TEST CONFIGURATIONS
# ncnf
    0
# nvcnf
#   n    l    f
    </PP_INPUTFILE>
  </PP_INFO>
  <!--                               -->
  <!-- END OF HUMAN READABLE SECTION -->
  <!--                               -->
    <PP_HEADER
       generated="Generated using ONCVPSP code by D. R. Hamann"
       author="anonymous"
       date="160328"
       comment=""
       element="Ar"
       pseudo_type="NC"
       relativistic="scalar"
       is_ultrasoft="F"
       is_paw="F"
       is_coulomb="F"
       has_so="F"
       has_wfc="F"
       has_gipaw="F"
       core_correction="F"
       functional="PBE"
       z_valence="    8.00"
       total_psenergy="  -4.24499443963E+01"
       rho_cutoff="   9.37000000000E+00"
       l_max="1"
       l_local="-1"
       mesh_size="   938"
       number_of_wfc="2"
       number_of_proj="4"/>
 <PP_MESH>
   <PP_R type="real"  size=" 938" columns="8">
    0.0000    0.0100    0.0200    0.0300    0.0400    0.0500    0.0600    0.0700
    0.0800    0.0900    0.1000    0.1100    0.1200    0.1300    0.1400    0.1500
    0.1600    0.1700    0.1800    0.1900    0.2000    0.2100    0.2200    0.2300
    0.2400    0.2500    0.2600    0.2700    0.2800    0.2900    0.3000    0.3100
    0.3200    0.3300    0.3400    0.3500    0.3600    0.3700    0.3800    0.3900
    0.4000    0.4100    0.4200    0.4300    0.4400    0.4500    0.4600    0.4700
    0.4800    0.4900    0.5000    0.5100    0.5200    0.5300    0.5400    0.5500
    0.5600    0.5700    0.5800    0.5900    0.6000    0.6100    0.6200    0.6300
    0.6400    0.6500    0.6600    0.6700    0.6800    0.6900    0.7000    0.7100
    0.7200    0.7300    0.7400    0.7500    0.7600    0.7700    0.7800    0.7900
    0.8000    0.8100    0.8200    0.8300    0.8400    0.8500    0.8600    0.8700
    0.8800    0.8900    0.9000    0.9100    0.9200    0.9300    0.9400    0.9500
    0.9600    0.9700    0.9800    0.9900    1.0000    1.0100    1.0200    1.0300
    1.0400    1.0500    1.0600    1.0700    1.0800    1.0900    1.1000    1.1100
    1.1200    1.1300    1.1400    1.1500    1.1600    1.1700    1.1800    1.1900
    1.2000    1.2100    1.2200    1.2300    1.2400    1.2500    1.2600    1.2700
    1.2800    1.2900    1.3000    1.3100    1.3200    1.3300    1.3400    1.3500
    1.3600    1.3700    1.3800    1.3900    1.4000    1.4100    1.4200    1.4300
    1.4400    1.4500    1.4600    1.4700    1.4800    1.4900    1.5000    1.5100
    1.5200    1.5300    1.5400    1.5500    1.5600    1.5700    1.5800    1.5900
    1.6000    1.6100    1.6200    1.6300    1.6400    1.6500    1.6600    1.6700
    1.6800    1.6900    1.7000    1.7100    1.7200    1.7300    1.7400    1.7500
    1.7600    1.7700    1.7800    1.7900    1.8000    1.8100    1.8200    1.8300
    1.8400    1.8500    1.8600    1.8700    1.8800    1.8900    1.9000    1.9100
    1.9200    1.9300    1.9400    1.9500    1.9600    1.9700    1.9800    1.9900
    2.0000    2.0100    2.0200    2.0300    2.0400    2.0500    2.0600    2.0700
    2.0800    2.0900    2.1000    2.1100    2.1200    2.1300    2.1400    2.1500
    2.1600    2.1700    2.1800    2.1900    2.2000    2.2100    2.2200    2.2300
    2.2400    2.2500    2.2600    2.2700    2.2800    2.2900    2.3000    2.3100
    2.3200    2.3300    2.3400    2.3500    2.3600    2.3700    2.3800    2.3900
    2.4000    2.4100    2.4200    2.4300    2.4400    2.4500    2.4600    2.4700
    2.4800    2.4900    2.5000    2.5100    2.5200    2.5300    2.5400    2.5500
    2.5600    2.5700    2.5800    2.5900    2.6000    2.6100    2.6200    2.6300
    2.6400    2.6500    2.6600    2.6700    2.6800    2.6900    2.7000    2.7100
    2.7200    2.7300    2.7400    2.7500    2.7600    2.7700    2.7800    2.7900
    2.8000    2.8100    2.8200    2.8300    2.8400    2.8500    2.8600    2.8700
    2.8800    2.8900    2.9000    2.9100    2.9200    2.9300    2.9400    2.9500
    2.9600    2.9700    2.9800    2.9900    3.0000    3.0100    3.0200    3.0300
    3.0400    3.0500    3.0600    3.0700    3.0800    3.0900    3.1000    3.1100
    3.1200    3.1300    3.1400    3.1500    3.1600    3.1700    3.1800    3.1900
    3.2000    3.2100    3.2200    3.2300    3.2400    3.2500    3.2600    3.2700
    3.2800    3.2900    3.3000    3.3100    3.3200    3.3300    3.3400    3.3500
    3.3600    3.3700    3.3800    3.3900    3.4000    3.4100    3.4200    3.4300
    3.4400    3.4500    3.4600    3.4700    3.4800    3.4900    3.5000    3.5100
    3.5200    3.5300    3.5400    3.5500    3.5600    3.5700    3.5800    3.5900
    3.6000    3.6100    3.6200    3.6300    3.6400    3.6500    3.6600    3.6700
    3.6800    3.6900    3.7000    3.7100    3.7200    3.7300    3.7400    3.7500
    3.7600    3.7700    3.7800    3.7900    3.8000    3.8100    3.8200    3.8300
    3.8400    3.8500    3.8600    3.8700    3.8800    3.8900    3.9000    3.9100
    3.9200    3.9300    3.9400    3.9500    3.9600    3.9700    3.9800    3.9900
    4.0000    4.0100    4.0200    4.0300    4.0400    4.0500    4.0600    4.0700
    4.0800    4.0900    4.1000    4.1100    4.1200    4.1300    4.1400    4.1500
    4.1600    4.1700    4.1800    4.1900    4.2000    4.2100    4.2200    4.2300
    4.2400    4.2500    4.2600    4.2700    4.2800    4.2900    4.3000    4.3100
    4.3200    4.3300    4.3400    4.3500    4.3600    4.3700    4.3800    4.3900
    4.4000    4.4100    4.4200    4.4300    4.4400    4.4500    4.4600    4.4700
    4.4800    4.4900    4.5000    4.5100    4.5200    4.5300    4.5400    4.5500
    4.5600    4.5700    4.5800    4.5900    4.6000    4.6100    4.6200    4.6300
    4.6400    4.6500    4.6600    4.6700    4.6800    4.6900    4.7000    4.7100
    4.7200    4.7300    4.7400    4.7500    4.7600    4.7700    4.7800    4.7900
    4.8000    4.8100    4.8200    4.8300    4.8400    4.8500    4.8600    4.8700
    4.8800    4.8900    4.9000    4.9100    4.9200    4.9300    4.9400    4.9500
    4.9600    4.9700    4.9800    4.9900    5.0000    5.0100    5.0200    5.0300
    5.0400    5.0500    5.0600    5.0700    5.0800    5.0900    5.1000    5.1100
    5.1200    5.1300    5.1400    5.1500    5.1600    5.1700    5.1800    5.1900
    5.2000    5.2100    5.2200    5.2300    5.2400    5.2500    5.2600    5.2700
    5.2800    5.2900    5.3000    5.3100    5.3200    5.3300    5.3400    5.3500
    5.3600    5.3700    5.3800    5.3900    5.4000    5.4100    5.4200    5.4300
    5.4400    5.4500    5.4600    5.4700    5.4800    5.4900    5.5000    5.5100
    5.5200    5.5300    5.5400    5.5500    5.5600    5.5700    5.5800    5.5900
    5.6000    5.6100    5.6200    5.6300    5.6400    5.6500    5.6600    5.6700
    5.6800    5.6900    5.7000    5.7100    5.7200    5.7300    5.7400    5.7500
    5.7600    5.7700    5.7800    5.7900    5.8000    5.8100    5.8200    5.8300
    5.8400    5.8500    5.8600    5.8700    5.8800    5.8900    5.9000    5.9100
    5.9200    5.9300    5.9400    5.9500    5.9600    5.9700    5.9800    5.9900
    6.0000    6.0100    6.0200    6.0300    6.0400    6.0500    6.0600    6.0700
    6.0800    6.0900    6.1000    6.1100    6.1200    6.1300    6.1400    6.1500
    6.1600    6.1700    6.1800    6.1900    6.2000    6.2100    6.2200    6.2300
    6.2400    6.2500    6.2600    6.2700    6.2800    6.2900    6.3000    6.3100
    6.3200    6.3300    6.3400    6.3500    6.3600    6.3700    6.3800    6.3900
    6.4000    6.4100    6.4200    6.4300    6.4400    6.4500    6.4600    6.4700
    6.4800    6.4900    6.5000    6.5100    6.5200    6.5300    6.5400    6.5500
    6.5600    6.5700    6.5800    6.5900    6.6000    6.6100    6.6200    6.6300
    6.6400    6.6500    6.6600    6.6700    6.6800    6.6900    6.7000    6.7100
    6.7200    6.7300    6.7400    6.7500    6.7600    6.7700    6.7800    6.7900
    6.8000    6.8100    6.8200    6.8300    6.8400    6.8500    6.8600    6.8700
    6.8800    6.8900    6.9000    6.9100    6.9200    6.9300    6.9400    6.9500
    6.9600    6.9700    6.9800    6.9900    7.0000    7.0100    7.0200    7.0300
    7.0400    7.0500    7.0600    7.0700    7.0800    7.0900    7.1000    7.1100
    7.1200    7.1300    7.1400    7.1500    7.1600    7.1700    7.1800    7.1900
    7.2000    7.2100    7.2200    7.2300    7.2400    7.2500    7.2600    7.2700
    7.2800    7.2900    7.3000    7.3100    7.3200    7.3300    7.3400    7.3500
    7.3600    7.3700    7.3800    7.3900    7.4000    7.4100    7.4200    7.4300
    7.4400    7.4500    7.4600    7.4700    7.4800    7.4900    7.5000    7.5100
    7.5200    7.5300    7.5400    7.5500    7.5600    7.5700    7.5800    7.5900
    7.6000    7.6100    7.6200    7.6300    7.6400    7.6500    7.6600    7.6700
    7.6800    7.6900    7.7000    7.7100    7.7200    7.7300    7.7400    7.7500
    7.7600    7.7700    7.7800    7.7900    7.8000    7.8100    7.8200    7.8300
    7.8400    7.8500    7.8600    7.8700    7.8800    7.8900    7.9000    7.9100
    7.9200    7.9300    7.9400    7.9500    7.9600    7.9700    7.9800    7.9900
    8.0000    8.0100    8.0200    8.0300    8.0400    8.0500    8.0600    8.0700
    8.0800    8.0900    8.1000    8.1100    8.1200    8.1300    8.1400    8.1500
    8.1600    8.1700    8.1800    8.1900    8.2000    8.2100    8.2200    8.2300
    8.2400    8.2500    8.2600    8.2700    8.2800    8.2900    8.3000    8.3100
    8.3200    8.3300    8.3400    8.3500    8.3600    8.3700    8.3800    8.3900
    8.4000    8.4100    8.4200    8.4300    8.4400    8.4500    8.4600    8.4700
    8.4800    8.4900    8.5000    8.5100    8.5200    8.5300    8.5400    8.5500
    8.5600    8.5700    8.5800    8.5900    8.6000    8.6100    8.6200    8.6300
    8.6400    8.6500    8.6600    8.6700    8.6800    8.6900    8.7000    8.7100
    8.7200    8.7300    8.7400    8.7500    8.7600    8.7700    8.7800    8.7900
    8.8000    8.8100    8.8200    8.8300    8.8400    8.8500    8.8600    8.8700
    8.8800    8.8900    8.9000    8.9100    8.9200    8.9300    8.9400    8.9500
    8.9600    8.9700    8.9800    8.9900    9.0000    9.0100    9.0200    9.0300
    9.0400    9.0500    9.0600    9.0700    9.0800    9.0900    9.1000    9.1100
    9.1200    9.1300    9.1400    9.1500    9.1600    9.1700    9.1800    9.1900
    9.2000    9.2100    9.2200    9.2300    9.2400    9.2500    9.2600    9.2700
    9.2800    9.2900    9.3000    9.3100    9.3200    9.3300    9.3400    9.3500
    9.3600    9.3700
   </PP_R>
   <PP_RAB type="real"  size=" 938" columns="8">
    0.0100    0.0100    0.0100    0.0100    0.0100    0.0100    0.0100    0.0100
    0.0100    0.0100    0.0100    0.0100    0.0100    0.0100    0.0100    0.0100
    0.0100    0.0100    0.0100    0.0100    0.0100    0.0100    0.0100    0.0100
    0.0100    0.0100    0.0100    0.0100    0.0100    0.0100    0.0100    0.0100
    0.0100    0.0100    0.0100    0.0100    0.0100    0.0100    0.0100    0.0100
    0.0100    0.0100    0.0100    0.0100    0.0100    0.0100    0.0100    0.0100
    0.0100    0.0100    0.0100    0.0100    0.0100    0.0100    0.0100    0.0100
    0.0100    0.0100    0.0100    0.0100    0.0100    0.0100    0.0100    0.0100
    0.0100    0.0100    0.0100    0.0100    0.0100    0.0100    0.0100    0.0100
    0.0100    0.0100    0.0100    0.0100    0.0100    0.0100    0.0100    0.0100
    0.0100    0.0100    0.0100    0.0100    0.0100    0.0100    0.0100    0.0100
    0.0100    0.0100    0.0100    0.0100    0.0100    0.0100    0.0100    0.0100
    0.0100    0.0100    0.0100    0.0100    0.0100    0.0100    0.0100    0.0100
    0.0100    0.0100    0.0100    0.0100    0.0100    0.0100    0.0100    0.0100
    0.0100    0.0100    0.0100    0.0100    0.0100    0.0100    0.0100    0.0100
    0.0100    0.0100    0.0100    0.0100    0.0100    0.0100    0.0100    0.0100
    0.0100    0.0100    0.0100    0.0100    0.0100    0.0100    0.0100    0.0100
    0.0100    0.0100    0.0100    0.0100    0.0100    0.0100    0.0100    0.0100
    0.0100    0.0100    0.0100    0.0100    0.0100    0.0100    0.0100    0.0100
    0.0100    0.0100    0.0100    0.0100    0.0100    0.0100    0.0100    0.0100
    0.0100    0.0100    0.0100    0.0100    0.0100    0.0100    0.0100    0.0100
    0.0100    0.0100    0.0100    0.0100    0.0100    0.0100    0.0100    0.0100
    0.0100    0.0100    0.0100    0.0100    0.0100    0.0100    0.0100    0.0100
    0.0100    0.0100    0.0100    0.0100    0.0100    0.0100    0.0100    0.0100
    0.0100    0.0100    0.0100    0.0100    0.0100    0.0100    0.0100    0.0100
    0.0100    0.0100    0.0100    0.0100    0.0100    0.0100    0.0100    0.0100
    0.0100    0.0100    0.0100    0.0100    0.0100    0.0100    0.0100    0.0100
    0.0100    0.0100    0.0100    0.0100    0.0100    0.0100    0.0100    0.0100
    0.0100    0.0100    0.0100    0.0100    0.0100    0.0100    0.0100    0.0100
    0.0100    0.0100    0.0100    0.0100    0.0100    0.0100    0.0100    0.0100
    0.0100    0.0100    0.0100    0.0100    0.0100    0.0100    0.0100    0.0100
    0.0100    0.0100    0.0100    0.0100    0.0100    0.0100    0.0100    0.0100
    0.0100    0.0100    0.0100    0.0100    0.0100    0.0100    0.0100    0.0100
    0.0100    0.0100    0.0100    0.0100    0.0100    0.0100    0.0100    0.0100
    0.0100    0.0100    0.0100    0.0100    0.0100    0.0100    0.0100    0.0100
    0.0100    0.0100    0.0100    0.0100    0.0100    0.0100    0.0100    0.0100
    0.0100    0.0100    0.0100    0.0100    0.0100    0.0100    0.0100    0.0100
    0.0100    0.0100    0.0100    0.0100    0.0100    0.0100    0.0100    0.0100
    0.0100    0.0100    0.0100    0.0100    0.0100    0.0100    0.0100    0.0100
    0.0100    0.0100    0.0100    0.0100    0.0100    0.0100    0.0100    0.0100
    0.0100    0.0100    0.0100    0.0100    0.0100    0.0100    0.0100    0.0100
    0.0100    0.0100    0.0100    0.0100    0.0100    0.0100    0.0100    0.0100
    0.0100    0.0100    0.0100    0.0100    0.0100    0.0100    0.0100    0.0100
    0.0100    0.0100    0.0100    0.0100    0.0100    0.0100    0.0100    0.0100
    0.0100    0.0100    0.0100    0.0100    0.0100    0.0100    0.0100    0.0100
    0.0100    0.0100    0.0100    0.0100    0.0100    0.0100    0.0100    0.0100
    0.0100    0.0100    0.0100    0.0100    0.0100    0.0100    0.0100    0.0100
    0.0100    0.0100    0.0100    0.0100    0.0100    0.0100    0.0100    0.0100
    0.0100    0.0100    0.0100    0.0100    0.0100    0.0100    0.0100    0.0100
    0.0100    0.0100    0.0100    0.0100    0.0100    0.0100    0.0100    0.0100
    0.0100    0.0100    0.0100    0.0100    0.0100    0.0100    0.0100    0.0100
    0.0100    0.0100    0.0100    0.0100    0.0100    0.0100    0.0100    0.0100
    0.0100    0.0100    0.0100    0.0100    0.0100    0.0100    0.0100    0.0100
    0.0100    0.0100    0.0100    0.0100    0.0100    0.0100    0.0100    0.0100
    0.0100    0.0100    0.0100    0.0100    0.0100    0.0100    0.0100    0.0100
    0.0100    0.0100    0.0100    0.0100    0.0100    0.0100    0.0100    0.0100
    0.0100    0.0100    0.0100    0.0100    0.0100    0.0100    0.0100    0.0100
    0.0100    0.0100    0.0100    0.0100    0.0100    0.0100    0.0100    0.0100
    0.0100    0.0100    0.0100    0.0100    0.0100    0.0100    0.0100    0.0100
    0.0100    0.0100    0.0100    0.0100    0.0100    0.0100    0.0100    0.0100
    0.0100    0.0100    0.0100    0.0100    0.0100    0.0100    0.0100    0.0100
    0.0100    0.0100    0.0100    0.0100    0.0100    0.0100    0.0100    0.0100
    0.0100    0.0100    0.0100    0.0100    0.0100    0.0100    0.0100    0.0100
    0.0100    0.0100    0.0100    0.0100    0.0100    0.0100    0.0100    0.0100
    0.0100    0.0100    0.0100    0.0100    0.0100    0.0100    0.0100    0.0100
    0.0100    0.0100    0.0100    0.0100    0.0100    0.0100    0.0100    0.0100
    0.0100    0.0100    0.0100    0.0100    0.0100    0.0100    0.0100    0.0100
    0.0100    0.0100    0.0100    0.0100    0.0100    0.0100    0.0100    0.0100
    0.0100    0.0100    0.0100    0.0100    0.0100    0.0100    0.0100    0.0100
    0.0100    0.0100    0.0100    0.0100    0.0100    0.0100    0.0100    0.0100
    0.0100    0.0100    0.0100    0.0100    0.0100    0.0100    0.0100    0.0100
    0.0100    0.0100    0.0100    0.0100    0.0100    0.0100    0.0100    0.0100
    0.0100    0.0100    0.0100    0.0100    0.0100    0.0100    0.0100    0.0100
    0.0100    0.0100    0.0100    0.0100    0.0100    0.0100    0.0100    0.0100
    0.0100    0.0100    0.0100    0.0100    0.0100    0.0100    0.0100    0.0100
    0.0100    0.0100    0.0100    0.0100    0.0100    0.0100    0.0100    0.0100
    0.0100    0.0100    0.0100    0.0100    0.0100    0.0100    0.0100    0.0100
    0.0100    0.0100    0.0100    0.0100    0.0100    0.0100    0.0100    0.0100
    0.0100    0.0100    0.0100    0.0100    0.0100    0.0100    0.0100    0.0100
    0.0100    0.0100    0.0100    0.0100    0.0100    0.0100    0.0100    0.0100
    0.0100    0.0100    0.0100    0.0100    0.0100    0.0100    0.0100    0.0100
    0.0100    0.0100    0.0100    0.0100    0.0100    0.0100    0.0100    0.0100
    0.0100    0.0100    0.0100    0.0100    0.0100    0.0100    0.0100    0.0100
    0.0100    0.0100    0.0100    0.0100    0.0100    0.0100    0.0100    0.0100
    0.0100    0.0100    0.0100    0.0100    0.0100    0.0100    0.0100    0.0100
    0.0100    0.0100    0.0100    0.0100    0.0100    0.0100    0.0100    0.0100
    0.0100    0.0100    0.0100    0.0100    0.0100    0.0100    0.0100    0.0100
    0.0100    0.0100    0.0100    0.0100    0.0100    0.0100    0.0100    0.0100
    0.0100    0.0100    0.0100    0.0100    0.0100    0.0100    0.0100    0.0100
    0.0100    0.0100    0.0100    0.0100    0.0100    0.0100    0.0100    0.0100
    0.0100    0.0100    0.0100    0.0100    0.0100    0.0100    0.0100    0.0100
    0.0100    0.0100    0.0100    0.0100    0.0100    0.0100    0.0100    0.0100
    0.0100    0.0100    0.0100    0.0100    0.0100    0.0100    0.0100    0.0100
    0.0100    0.0100    0.0100    0.0100    0.0100    0.0100    0.0100    0.0100
    0.0100    0.0100    0.0100    0.0100    0.0100    0.0100    0.0100    0.0100
    0.0100    0.0100    0.0100    0.0100    0.0100    0.0100    0.0100    0.0100
    0.0100    0.0100    0.0100    0.0100    0.0100    0.0100    0.0100    0.0100
    0.0100    0.0100    0.0100    0.0100    0.0100    0.0100    0.0100    0.0100
    0.0100    0.0100    0.0100    0.0100    0.0100    0.0100    0.0100    0.0100
    0.0100    0.0100    0.0100    0.0100    0.0100    0.0100    0.0100    0.0100
    0.0100    0.0100    0.0100    0.0100    0.0100    0.0100    0.0100    0.0100
    0.0100    0.0100    0.0100    0.0100    0.0100    0.0100    0.0100    0.0100
    0.0100    0.0100    0.0100    0.0100    0.0100    0.0100    0.0100    0.0100
    0.0100    0.0100    0.0100    0.0100    0.0100    0.0100    0.0100    0.0100
    0.0100    0.0100    0.0100    0.0100    0.0100    0.0100    0.0100    0.0100
    0.0100    0.0100    0.0100    0.0100    0.0100    0.0100    0.0100    0.0100
    0.0100    0.0100    0.0100    0.0100    0.0100    0.0100    0.0100    0.0100
    0.0100    0.0100    0.0100    0.0100    0.0100    0.0100    0.0100    0.0100
    0.0100    0.0100    0.0100    0.0100    0.0100    0.0100    0.0100    0.0100
    0.0100    0.0100    0.0100    0.0100    0.0100    0.0100    0.0100    0.0100
    0.0100    0.0100    0.0100    0.0100    0.0100    0.0100    0.0100    0.0100
    0.0100    0.0100    0.0100    0.0100    0.0100    0.0100    0.0100    0.0100
    0.0100    0.0100    0.0100    0.0100    0.0100    0.0100    0.0100    0.0100
    0.0100    0.0100    0.0100    0.0100    0.0100    0.0100    0.0100    0.0100
    0.0100    0.0100    0.0100    0.0100    0.0100    0.0100    0.0100    0.0100
    0.0100    0.0100    0.0100    0.0100    0.0100    0.0100    0.0100    0.0100
    0.0100    0.0100    0.0100    0.0100    0.0100    0.0100    0.0100    0.0100
    0.0100    0.0100
   </PP_RAB>
 </PP_MESH>
  <PP_LOCAL type="real"  size=" 938" columns="4">
   -2.1181466992E+01   -2.1182504558E+01   -2.1185494017E+01   -2.1190097186E+01
   -2.1195789776E+01   -2.1201918600E+01   -2.1207765138E+01   -2.1212607685E+01
   -2.1215774319E+01   -2.1216681899E+01   -2.1214859479E+01   -2.1209957191E+01
   -2.1201743337E+01   -2.1190093171E+01   -2.1174972793E+01   -2.1156421084E+01
   -2.1134531822E+01   -2.1109437396E+01   -2.1081294893E+01   -2.1050274818E+01
   -2.1016552402E+01   -2.0980301235E+01   -2.0941688871E+01   -2.0900874034E+01
   -2.0858005055E+01   -2.0813219213E+01   -2.0766642730E+01   -2.0718391183E+01
   -2.0668570177E+01   -2.0617276144E+01   -2.0564597187E+01   -2.0510613906E+01
   -2.0455400155E+01   -2.0399023727E+01   -2.0341546940E+01   -2.0283027131E+01
   -2.0223517063E+01   -2.0163065246E+01   -2.0101716194E+01   -2.0039510616E+01
   -1.9976485565E+01   -1.9912674553E+01   -1.9848107633E+01   -1.9782811477E+01
   -1.9716809440E+01   -1.9650121632E+01   -1.9582764991E+01   -1.9514753382E+01
   -1.9446097705E+01   -1.9376806025E+01   -1.9306883734E+01   -1.9236333732E+01
   -1.9165156630E+01   -1.9093350982E+01   -1.9020913539E+01   -1.8947839514E+01
   -1.8874122869E+01   -1.8799756607E+01   -1.8724733075E+01   -1.8649044256E+01
   -1.8572682067E+01   -1.8495638641E+01   -1.8417906593E+01   -1.8339479263E+01
   -1.8260350944E+01   -1.8180517074E+01   -1.8099974404E+01   -1.8018721131E+01
   -1.7936757007E+01   -1.7854083408E+01   -1.7770703386E+01   -1.7686621679E+01
   -1.7601844714E+01   -1.7516380570E+01   -1.7430238941E+01   -1.7343431067E+01
   -1.7255969670E+01   -1.7167868873E+01   -1.7079144113E+01   -1.6989812063E+01
   -1.6899890544E+01   -1.6809398448E+01   -1.6718355663E+01   -1.6626783004E+01
   -1.6534702155E+01   -1.6442135613E+01   -1.6349106645E+01   -1.6255639248E+01
   -1.6161758119E+01   -1.6067488631E+01   -1.5972856805E+01   -1.5877889300E+01
   -1.5782613391E+01   -1.5687056953E+01   -1.5591248443E+01   -1.5495216880E+01
   -1.5398991819E+01   -1.5302603322E+01   -1.5206081917E+01   -1.5109458560E+01
   -1.5012764580E+01   -1.4916031619E+01   -1.4819291571E+01   -1.4722576501E+01
   -1.4625918569E+01   -1.4529349939E+01   -1.4432902693E+01   -1.4336608733E+01
   -1.4240499682E+01   -1.4144606789E+01   -1.4048960831E+01   -1.3953592017E+01
   -1.3858529897E+01   -1.3763803278E+01   -1.3669440138E+01   -1.3575467564E+01
   -1.3481911677E+01   -1.3388797585E+01   -1.3296149332E+01   -1.3203989869E+01
   -1.3112341021E+01   -1.3021223477E+01   -1.2930656783E+01   -1.2840659344E+01
   -1.2751248437E+01   -1.2662440230E+01   -1.2574249811E+01   -1.2486691219E+01
   -1.2399777486E+01   -1.2313520678E+01   -1.2227931944E+01   -1.2143021562E+01
   -1.2058798997E+01   -1.1975272946E+01   -1.1892451399E+01   -1.1810341682E+01
   -1.1728950513E+01   -1.1648284050E+01   -1.1568347935E+01   -1.1489147339E+01
   -1.1410686997E+01   -1.1332971249E+01   -1.1256004064E+01   -1.1179789072E+01
   -1.1104329581E+01   -1.1029628596E+01   -1.0955688827E+01   -1.0882512699E+01
   -1.0810102347E+01   -1.0738459616E+01   -1.0667586048E+01   -1.0597482867E+01
   -1.0528150960E+01   -1.0459590851E+01   -1.0391802672E+01   -1.0324786125E+01
   -1.0258540448E+01   -1.0193064371E+01   -1.0128356070E+01   -1.0064413116E+01
   -1.0001232427E+01   -9.9388102121E+00   -9.8771419156E+00   -9.8162221598E+00
   -9.7560446966E+00   -9.6966023210E+00   -9.6378868890E+00   -9.5798891956E+00
   -9.5225987655E+00   -9.4660042800E+00   -9.4100938900E+00   -9.3548554496E+00
   -9.3002769810E+00   -9.2463465641E+00   -9.1930521693E+00   -9.1403819765E+00
   -9.0883245769E+00   -9.0368689522E+00   -8.9860046242E+00   -8.9357214757E+00
   -8.8860093479E+00   -8.8368581269E+00   -8.7882580425E+00   -8.7401996703E+00
   -8.6926737521E+00   -8.6456711555E+00   -8.5991829489E+00   -8.5532004203E+00
   -8.5077150428E+00   -8.4627184639E+00   -8.4182025096E+00   -8.3741591815E+00
   -8.3305806522E+00   -8.2874592613E+00   -8.2447875121E+00   -8.2025580684E+00
   -8.1607637508E+00   -8.1193975335E+00   -8.0784525414E+00   -8.0379220467E+00
   -7.9977994660E+00   -7.9580783571E+00   -7.9187524164E+00   -7.8798154755E+00
   -7.8412614985E+00   -7.8030845794E+00   -7.7652789394E+00   -7.7278389237E+00
   -7.6907589992E+00   -7.6540337517E+00   -7.6176578831E+00   -7.5816262093E+00
   -7.5459336570E+00   -7.5105752617E+00   -7.4755461650E+00   -7.4408416118E+00
   -7.4064569487E+00   -7.3723876205E+00   -7.3386291686E+00   -7.3051772286E+00
   -7.2720275272E+00   -7.2391758811E+00   -7.2066181937E+00   -7.1743504533E+00
   -7.1423687308E+00   -7.1106691777E+00   -7.0792480236E+00   -7.0481015745E+00
   -7.0172262104E+00   -6.9866183832E+00   -6.9562746151E+00   -6.9261914962E+00
   -6.8963656828E+00   -6.8667938954E+00   -6.8374729170E+00   -6.8083995909E+00
   -6.7795708196E+00   -6.7509835623E+00   -6.7226348338E+00   -6.6945217025E+00
   -6.6666412889E+00   -6.6389907644E+00   -6.6115673492E+00   -6.5843683111E+00
   -6.5573909644E+00   -6.5306326678E+00   -6.5040908241E+00   -6.4777628778E+00
   -6.4516463149E+00   -6.4257386610E+00   -6.4000374805E+00   -6.3745403755E+00
   -6.3492449847E+00   -6.3241489825E+00   -6.2992500779E+00   -6.2745460137E+00
   -6.2500345657E+00   -6.2257135418E+00   -6.2015807811E+00   -6.1776341535E+00
   -6.1538715588E+00   -6.1302909259E+00   -6.1068902125E+00   -6.0836674041E+00
   -6.0606205140E+00   -6.0377475822E+00   -6.0150466753E+00   -5.9925158857E+00
   -5.9701533317E+00   -5.9479571564E+00   -5.9259255278E+00   -5.9040566383E+00
   -5.8823487042E+00   -5.8607999656E+00   -5.8394086858E+00   -5.8181731514E+00
   -5.7970916717E+00   -5.7761625784E+00   -5.7553842255E+00   -5.7347549891E+00
   -5.7142732669E+00   -5.6939374780E+00   -5.6737460631E+00   -5.6536974836E+00
   -5.6337902218E+00   -5.6140227807E+00   -5.5943936835E+00   -5.5749014735E+00
   -5.5555447142E+00   -5.5363219884E+00   -5.5172318987E+00   -5.4982730666E+00
   -5.4794441330E+00   -5.4607437572E+00   -5.4421706174E+00   -5.4237234098E+00
   -5.4054008490E+00   -5.3872016671E+00   -5.3691246141E+00   -5.3511684573E+00
   -5.3333319808E+00   -5.3156139861E+00   -5.2980132908E+00   -5.2805287291E+00
   -5.2631591515E+00   -5.2459034239E+00   -5.2287604281E+00   -5.2117290612E+00
   -5.1948082353E+00   -5.1779968774E+00   -5.1612939292E+00   -5.1446983464E+00
   -5.1282090991E+00   -5.1118251711E+00   -5.0955455598E+00   -5.0793692761E+00
   -5.0632953439E+00   -5.0473227995E+00   -5.0314506912E+00   -5.0156780793E+00
   -5.0000040356E+00   -4.9844276428E+00   -4.9689479957E+00   -4.9535641995E+00
   -4.9382753696E+00   -4.9230806316E+00   -4.9079791177E+00   -4.8929699709E+00
   -4.8780523440E+00   -4.8632254006E+00   -4.8484883172E+00   -4.8338402795E+00
   -4.8192804837E+00   -4.8048081352E+00   -4.7904224481E+00   -4.7761226463E+00
   -4.7619079629E+00   -4.7477776403E+00   -4.7337309296E+00   -4.7197670909E+00
   -4.7058853930E+00   -4.6920851133E+00   -4.6783655375E+00   -4.6647259599E+00
   -4.6511656826E+00   -4.6376840162E+00   -4.6242802790E+00   -4.6109537974E+00
   -4.5977039053E+00   -4.5845299443E+00   -4.5714312637E+00   -4.5584072199E+00
   -4.5454571769E+00   -4.5325805057E+00   -4.5197765846E+00   -4.5070447988E+00
   -4.4943845404E+00   -4.4817952083E+00   -4.4692762081E+00   -4.4568269522E+00
   -4.4444468592E+00   -4.4321353545E+00   -4.4198918697E+00   -4.4077158425E+00
   -4.3956067170E+00   -4.3835639433E+00   -4.3715869776E+00   -4.3596752819E+00
   -4.3478283240E+00   -4.3360455778E+00   -4.3243265225E+00   -4.3126706431E+00
   -4.3010774301E+00   -4.2895463795E+00   -4.2780769927E+00   -4.2666687763E+00
   -4.2553212423E+00   -4.2440339077E+00   -4.2328062949E+00   -4.2216379311E+00
   -4.2105283484E+00   -4.1994770841E+00   -4.1884836802E+00   -4.1775476834E+00
   -4.1666686453E+00   -4.1558461219E+00   -4.1450796741E+00   -4.1343688671E+00
   -4.1237132708E+00   -4.1131124594E+00   -4.1025660113E+00   -4.0920735095E+00
   -4.0816345412E+00   -4.0712486977E+00   -4.0609155744E+00   -4.0506347710E+00
   -4.0404058911E+00   -4.0302285423E+00   -4.0201023361E+00   -4.0100268881E+00
   -4.0000018176E+00   -3.9900267476E+00   -3.9801013051E+00   -3.9702251205E+00
   -3.9603978281E+00   -3.9506190658E+00   -3.9408884748E+00   -3.9312057002E+00
   -3.9215703904E+00   -3.9119821971E+00   -3.9024407757E+00   -3.8929457847E+00
   -3.8834968860E+00   -3.8740937448E+00   -3.8647360296E+00   -3.8554234120E+00
   -3.8461555666E+00   -3.8369321715E+00   -3.8277529076E+00   -3.8186174589E+00
   -3.8095255124E+00   -3.8004767582E+00   -3.7914708891E+00   -3.7825076011E+00