<UPF version="2.0.1">
  <PP_INFO>

 This pseudopotential file has been produced using the code
 ONCVPSP  (Optimized Norm-Conservinng Vanderbilt PSeudopotential)
 scalar-relativistic version 3.2.2 08/07/2015 by D. R. Hamann
 The code is available through a link at URL www.mat-simresearch.com.
 Documentation with the package provides a full discription of the
 input data below.


 While it is not required under the terms of the GNU GPL, it is
 suggested that you cite D. R. Hamann, Phys. Rev. B 88, 085117 (2013)
 in any publication using these pseudopotentials.

    <PP_INPUTFILE>
# ATOM AND REFERENCE CONFIGURATION
# atsym  z   nc   nv     iexc    psfile
  F  9.00    1    2       4      upf
#
#   n    l    f        energy (Ha)
    1    0    2.00
    2    0    2.00
    2    1    5.00
#
# PSEUDOPOTENTIAL AND OPTIMIZATION
# lmax
    1
#
#   l,   rc,     ep,   ncon, nbas, qcut
    0    1.58   -1.10    5    8    8.73
    1    1.66   -0.41    5    8    8.70
#
# LOCAL POTENTIAL
# lloc, lpopt,  rc(5),   dvloc0
    4    5      0.97       0.00
#
# VANDERBILT-KLEINMAN-BYLANDER PROJECTORs
# l, nproj, debl
    0    2    1.5112
    1    2    1.5317
#
# MODEL CORE CHARGE
# icmod, fcfact
    0    0.00
#
# LOG DERIVATIVE ANALYSIS
# epsh1, epsh2, depsh
   -5.00    3.00    0.02
#
# OUTPUT GRID
# rlmax, drl
    6.00    0.01
#
# TEST CONFIGURATIONS
# ncnf
    0
# nvcnf
#   n    l    f
    </PP_INPUTFILE>
  </PP_INFO>
  <!--                               -->
  <!-- END OF HUMAN READABLE SECTION -->
  <!--                               -->
    <PP_HEADER
       generated="Generated using ONCVPSP code by D. R. Hamann"
       author="anonymous"
       date="160328"
       comment=""
       element="F "
       pseudo_type="NC"
       relativistic="scalar"
       is_ultrasoft="F"
       is_paw="F"
       is_coulomb="F"
       has_so="F"
       has_wfc="F"
       has_gipaw="F"
       core_correction="F"
       functional="PBE"
       z_valence="    7.00"
       total_psenergy="  -4.74708087436E+01"
       rho_cutoff="   8.31000000000E+00"
       l_max="1"
       l_local="-1"
       mesh_size="   832"
       number_of_wfc="2"
       number_of_proj="4"/>
 <PP_MESH>
   <PP_R type="real"  size=" 832" columns="8">
    0.0000    0.0100    0.0200    0.0300    0.0400    0.0500    0.0600    0.0700
    0.0800    0.0900    0.1000    0.1100    0.1200    0.1300    0.1400    0.1500
    0.1600    0.1700    0.1800    0.1900    0.2000    0.2100    0.2200    0.2300
    0.2400    0.2500    0.2600    0.2700    0.2800    0.2900    0.3000    0.3100
    0.3200    0.3300    0.3400    0.3500    0.3600    0.3700    0.3800    0.3900
    0.4000    0.4100    0.4200    0.4300    0.4400    0.4500    0.4600    0.4700
    0.4800    0.4900    0.5000    0.5100    0.5200    0.5300    0.5400    0.5500
    0.5600    0.5700    0.5800    0.5900    0.6000    0.6100    0.6200    0.6300
    0.6400    0.6500    0.6600    0.6700    0.6800    0.6900    0.7000    0.7100
    0.7200    0.7300    0.7400    0.7500    0.7600    0.7700    0.7800    0.7900
    0.8000    0.8100    0.8200    0.8300    0.8400    0.8500    0.8600    0.8700
    0.8800    0.8900    0.9000    0.9100    0.9200    0.9300    0.9400    0.9500
    0.9600    0.9700    0.9800    0.9900    1.0000    1.0100    1.0200    1.0300
    1.0400    1.0500    1.0600    1.0700    1.0800    1.0900    1.1000    1.1100
    1.1200    1.1300    1.1400    1.1500    1.1600    1.1700    1.1800    1.1900
    1.2000    1.2100    1.2200    1.2300    1.2400    1.2500    1.2600    1.2700
    1.2800    1.2900    1.3000    1.3100    1.3200    1.3300    1.3400    1.3500
    1.3600    1.3700    1.3800    1.3900    1.4000    1.4100    1.4200    1.4300
    1.4400    1.4500    1.4600    1.4700    1.4800    1.4900    1.5000    1.5100
    1.5200    1.5300    1.5400    1.5500    1.5600    1.5700    1.5800    1.5900
    1.6000    1.6100    1.6200    1.6300    1.6400    1.6500    1.6600    1.6700
    1.6800    1.6900    1.7000    1.7100    1.7200    1.7300    1.7400    1.7500
    1.7600    1.7700    1.7800    1.7900    1.8000    1.8100    1.8200    1.8300
    1.8400    1.8500    1.8600    1.8700    1.8800    1.8900    1.9000    1.9100
    1.9200    1.9300    1.9400    1.9500    1.9600    1.9700    1.9800    1.9900
    2.0000    2.0100    2.0200    2.0300    2.0400    2.0500    2.0600    2.0700
    2.0800    2.0900    2.1000    2.1100    2.1200    2.1300    2.1400    2.1500
    2.1600    2.1700    2.1800    2.1900    2.2000    2.2100    2.2200    2.2300
    2.2400    2.2500    2.2600    2.2700    2.2800    2.2900    2.3000    2.3100
    2.3200    2.3300    2.3400    2.3500    2.3600    2.3700    2.3800    2.3900
    2.4000    2.4100    2.4200    2.4300    2.4400    2.4500    2.4600    2.4700
    2.4800    2.4900    2.5000    2.5100    2.5200    2.5300    2.5400    2.5500
    2.5600    2.5700    2.5800    2.5900    2.6000    2.6100    2.6200    2.6300
    2.6400    2.6500    2.6600    2.6700    2.6800    2.6900    2.7000    2.7100
    2.7200    2.7300    2.7400    2.7500    2.7600    2.7700    2.7800    2.7900
    2.8000    2.8100    2.8200    2.8300    2.8400    2.8500    2.8600    2.8700
    2.8800    2.8900    2.9000    2.9100    2.9200    2.9300    2.9400    2.9500
    2.9600    2.9700    2.9800    2.9900    3.0000    3.0100    3.0200    3.0300
    3.0400    3.0500    3.0600    3.0700    3.0800    3.0900    3.1000    3.1100
    3.1200    3.1300    3.1400    3.1500    3.1600    3.1700    3.1800    3.1900
    3.2000    3.2100    3.2200    3.2300    3.2400    3.2500    3.2600    3.2700
    3.2800    3.2900    3.3000    3.3100    3.3200    3.3300    3.3400    3.3500
    3.3600    3.3700    3.3800    3.3900    3.4000    3.4100    3.4200    3.4300
    3.4400    3.4500    3.4600    3.4700    3.4800    3.4900    3.5000    3.5100
    3.5200    3.5300    3.5400    3.5500    3.5600    3.5700    3.5800    3.5900
    3.6000    3.6100    3.6200    3.6300    3.6400    3.6500    3.6600    3.6700
    3.6800    3.6900    3.7000    3.7100    3.7200    3.7300    3.7400    3.7500
    3.7600    3.7700    3.7800    3.7900    3.8000    3.8100    3.8200    3.8300
    3.8400    3.8500    3.8600    3.8700    3.8800    3.8900    3.9000    3.9100
    3.9200    3.9300    3.9400    3.9500    3.9600    3.9700    3.9800    3.9900
    4.0000    4.0100    4.0200    4.0300    4.0400    4.0500    4.0600    4.0700
    4.0800    4.0900    4.1000    4.1100    4.1200    4.1300    4.1400    4.1500
    4.1600    4.1700    4.1800    4.1900    4.2000    4.2100    4.2200    4.2300
    4.2400    4.2500    4.2600    4.2700    4.2800    4.2900    4.3000    4.3100
    4.3200    4.3300    4.3400    4.3500    4.3600    4.3700    4.3800    4.3900
    4.4000    4.4100    4.4200    4.4300    4.4400    4.4500    4.4600    4.4700
    4.4800    4.4900    4.5000    4.5100    4.5200    4.5300    4.5400    4.5500
    4.5600    4.5700    4.5800    4.5900    4.6000    4.6100    4.6200    4.6300
    4.6400    4.6500    4.6600    4.6700    4.6800    4.6900    4.7000    4.7100
    4.7200    4.7300    4.7400    4.7500    4.7600    4.7700    4.7800    4.7900
    4.8000    4.8100    4.8200    4.8300    4.8400    4.8500    4.8600    4.8700
    4.8800    4.8900    4.9000    4.9100    4.9200    4.9300    4.9400    4.9500
    4.9600    4.9700    4.9800    4.9900    5.0000    5.0100    5.0200    5.0300
    5.0400    5.0500    5.0600    5.0700    5.0800    5.0900    5.1000    5.1100
    5.1200    5.1300    5.1400    5.1500    5.1600    5.1700    5.1800    5.1900
    5.2000    5.2100    5.2200    5.2300    5.2400    5.2500    5.2600    5.2700
    5.2800    5.2900    5.3000    5.3100    5.3200    5.3300    5.3400    5.3500
    5.3600    5.3700    5.3800    5.3900    5.4000    5.4100    5.4200    5.4300
    5.4400    5.4500    5.4600    5.4700    5.4800    5.4900    5.5000    5.5100
    5.5200    5.5300    5.5400    5.5500    5.5600    5.5700    5.5800    5.5900
    5.6000    5.6100    5.6200    5.6300    5.6400    5.6500    5.6600    5.6700
    5.6800    5.6900    5.7000    5.7100    5.7200    5.7300    5.7400    5.7500
    5.7600    5.7700    5.7800    5.7900    5.8000    5.8100    5.8200    5.8300
    5.8400    5.8500    5.8600    5.8700    5.8800    5.8900    5.9000    5.9100
    5.9200    5.9300    5.9400    5.9500    5.9600    5.9700    5.9800    5.9900
    6.0000    6.0100    6.0200    6.0300    6.0400    6.0500    6.0600    6.0700
    6.0800    6.0900    6.1000    6.1100    6.1200    6.1300    6.1400    6.1500
    6.1600    6.1700    6.1800    6.1900    6.2000    6.2100    6.2200    6.2300
    6.2400    6.2500    6.2600    6.2700    6.2800    6.2900    6.3000    6.3100
    6.3200    6.3300    6.3400    6.3500    6.3600    6.3700    6.3800    6.3900
    6.4000    6.4100    6.4200    6.4300    6.4400    6.4500    6.4600    6.4700
    6.4800    6.4900    6.5000    6.5100    6.5200    6.5300    6.5400    6.5500
    6.5600    6.5700    6.5800    6.5900    6.6000    6.6100    6.6200    6.6300
    6.6400    6.6500    6.6600    6.6700    6.6800    6.6900    6.7000    6.7100
    6.7200    6.7300    6.7400    6.7500    6.7600    6.7700    6.7800    6.7900
    6.8000    6.8100    6.8200    6.8300    6.8400    6.8500    6.8600    6.8700
    6.8800    6.8900    6.9000    6.9100    6.9200    6.9300    6.9400    6.9500
    6.9600    6.9700    6.9800    6.9900    7.0000    7.0100    7.0200    7.0300
    7.0400    7.0500    7.0600    7.0700    7.0800    7.0900    7.1000    7.1100
    7.1200    7.1300    7.1400    7.1500    7.1600    7.1700    7.1800    7.1900
    7.2000    7.2100    7.2200    7.2300    7.2400    7.2500    7.2600    7.2700
    7.2800    7.2900    7.3000    7.3100    7.3200    7.3300    7.3400    7.3500
    7.3600    7.3700    7.3800    7.3900    7.4000    7.4100    7.4200    7.4300
    7.4400    7.4500    7.4600    7.4700    7.4800    7.4900    7.5000    7.5100
    7.5200    7.5300    7.5400    7.5500    7.5600    7.5700    7.5800    7.5900
    7.6000    7.6100    7.6200    7.6300    7.6400    7.6500    7.6600    7.6700
    7.6800    7.6900    7.7000    7.7100    7.7200    7.7300    7.7400    7.7500
    7.7600    7.7700    7.7800    7.7900    7.8000    7.8100    7.8200    7.8300
    7.8400    7.8500    7.8600    7.8700    7.8800    7.8900    7.9000    7.9100
    7.9200    7.9300    7.9400    7.9500    7.9600    7.9700    7.9800    7.9900
    8.0000    8.0100    8.0200    8.0300    8.0400    8.0500    8.0600    8.0700
    8.0800    8.0900    8.1000    8.1100    8.1200    8.1300    8.1400    8.1500
    8.1600    8.1700    8.1800    8.1900    8.2000    8.2100    8.2200    8.2300
    8.2400    8.2500    8.2600    8.2700    8.2800    8.2900    8.3000    8.3100
   </PP_R>
   <PP_RAB type="real"  size=" 832" columns="8">
    0.0100    0.0100    0.0100    0.0100    0.0100    0.0100    0.0100    0.0100
    0.0100    0.0100    0.0100    0.0100    0.0100    0.0100    0.0100    0.0100
    0.0100    0.0100    0.0100    0.0100    0.0100    0.0100    0.0100    0.0100
    0.0100    0.0100    0.0100    0.0100    0.0100    0.0100    0.0100    0.0100
    0.0100    0.0100    0.0100    0.0100    0.0100    0.0100    0.0100    0.0100
    0.0100    0.0100    0.0100    0.0100    0.0100    0.0100    0.0100    0.0100
    0.0100    0.0100    0.0100    0.0100    0.0100    0.0100    0.0100    0.0100
    0.0100    0.0100    0.0100    0.0100    0.0100    0.0100    0.0100    0.0100
    0.0100    0.0100    0.0100    0.0100    0.0100    0.0100    0.0100    0.0100
    0.0100    0.0100    0.0100    0.0100    0.0100    0.0100    0.0100    0.0100
    0.0100    0.0100    0.0100    0.0100    0.0100    0.0100    0.0100    0.0100
    0.0100    0.0100    0.0100    0.0100    0.0100    0.0100    0.0100    0.0100
    0.0100    0.0100    0.0100    0.0100    0.0100    0.0100    0.0100    0.0100
    0.0100    0.0100    0.0100    0.0100    0.0100    0.0100    0.0100    0.0100
    0.0100    0.0100    0.0100    0.0100    0.0100    0.0100    0.0100    0.0100
    0.0100    0.0100    0.0100    0.0100    0.0100    0.0100    0.0100    0.0100
    0.0100    0.0100    0.0100    0.0100    0.0100    0.0100    0.0100    0.0100
    0.0100    0.0100    0.0100    0.0100    0.0100    0.0100    0.0100    0.0100
    0.0100    0.0100    0.0100    0.0100    0.0100    0.0100    0.0100    0.0100
    0.0100    0.0100    0.0100    0.0100    0.0100    0.0100    0.0100    0.0100
    0.0100    0.0100    0.0100    0.0100    0.0100    0.0100    0.0100    0.0100
    0.0100    0.0100    0.0100    0.0100    0.0100    0.0100    0.0100    0.0100
    0.0100    0.0100    0.0100    0.0100    0.0100    0.0100    0.0100    0.0100
    0.0100    0.0100    0.0100    0.0100    0.0100    0.0100    0.0100    0.0100
    0.0100    0.0100    0.0100    0.0100    0.0100    0.0100    0.0100    0.0100
    0.0100    0.0100    0.0100    0.0100    0.0100    0.0100    0.0100    0.0100
    0.0100    0.0100    0.0100    0.0100    0.0100    0.0100    0.0100    0.0100
    0.0100    0.0100    0.0100    0.0100    0.0100    0.0100    0.0100    0.0100
    0.0100    0.0100    0.0100    0.0100    0.0100    0.0100    0.0100    0.0100
    0.0100    0.0100    0.0100    0.0100    0.0100    0.0100    0.0100    0.0100
    0.0100    0.0100    0.0100    0.0100    0.0100    0.0100    0.0100    0.0100
    0.0100    0.0100    0.0100    0.0100    0.0100    0.0100    0.0100    0.0100
    0.0100    0.0100    0.0100    0.0100    0.0100    0.0100    0.0100    0.0100
    0.0100    0.0100    0.0100    0.0100    0.0100    0.0100    0.0100    0.0100
    0.0100    0.0100    0.0100    0.0100    0.0100    0.0100    0.0100    0.0100
    0.0100    0.0100    0.0100    0.0100    0.0100    0.0100    0.0100    0.0100
    0.0100    0.0100    0.0100    0.0100    0.0100    0.0100    0.0100    0.0100
    0.0100    0.0100    0.0100    0.0100    0.0100    0.0100    0.0100    0.0100
    0.0100    0.0100    0.0100    0.0100    0.0100    0.0100    0.0100    0.0100
    0.0100    0.0100    0.0100    0.0100    0.0100    0.0100    0.0100    0.0100
    0.0100    0.0100    0.0100    0.0100    0.0100    0.0100    0.0100    0.0100
    0.0100    0.0100    0.0100    0.0100    0.0100    0.0100    0.0100    0.0100
    0.0100    0.0100    0.0100    0.0100    0.0100    0.0100    0.0100    0.0100
    0.0100    0.0100    0.0100    0.0100    0.0100    0.0100    0.0100    0.0100
    0.0100    0.0100    0.0100    0.0100    0.0100    0.0100    0.0100    0.0100
    0.0100    0.0100    0.0100    0.0100    0.0100    0.0100    0.0100    0.0100
    0.0100    0.0100    0.0100    0.0100    0.0100    0.0100    0.0100    0.0100
    0.0100    0.0100    0.0100    0.0100    0.0100    0.0100    0.0100    0.0100
    0.0100    0.0100    0.0100    0.0100    0.0100    0.0100    0.0100    0.0100
    0.0100    0.0100    0.0100    0.0100    0.0100    0.0100    0.0100    0.0100
    0.0100    0.0100    0.0100    0.0100    0.0100    0.0100    0.0100    0.0100
    0.0100    0.0100    0.0100    0.0100    0.0100    0.0100    0.0100    0.0100
    0.0100    0.0100    0.0100    0.0100    0.0100    0.0100    0.0100    0.0100
    0.0100    0.0100    0.0100    0.0100    0.0100    0.0100    0.0100    0.0100
    0.0100    0.0100    0.0100    0.0100    0.0100    0.0100    0.0100    0.0100
    0.0100    0.0100    0.0100    0.0100    0.0100    0.0100    0.0100    0.0100
    0.0100    0.0100    0.0100    0.0100    0.0100    0.0100    0.0100    0.0100
    0.0100    0.0100    0.0100    0.0100    0.0100    0.0100    0.0100    0.0100
    0.0100    0.0100    0.0100    0.0100    0.0100    0.0100    0.0100    0.0100
    0.0100    0.0100    0.0100    0.0100    0.0100    0.0100    0.0100    0.0100
    0.0100    0.0100    0.0100    0.0100    0.0100    0.0100    0.0100    0.0100
    0.0100    0.0100    0.0100    0.0100    0.0100    0.0100    0.0100    0.0100
    0.0100    0.0100    0.0100    0.0100    0.0100    0.0100    0.0100    0.0100
    0.0100    0.0100    0.0100    0.0100    0.0100    0.0100    0.0100    0.0100
    0.0100    0.0100    0.0100    0.0100    0.0100    0.0100    0.0100    0.0100
    0.0100    0.0100    0.0100    0.0100    0.0100    0.0100    0.0100    0.0100
    0.0100    0.0100    0.0100    0.0100    0.0100    0.0100    0.0100    0.0100
    0.0100    0.0100    0.0100    0.0100    0.0100    0.0100    0.0100    0.0100
    0.0100    0.0100    0.0100    0.0100    0.0100    0.0100    0.0100    0.0100
    0.0100    0.0100    0.0100    0.0100    0.0100    0.0100    0.0100    0.0100
    0.0100    0.0100    0.0100    0.0100    0.0100    0.0100    0.0100    0.0100
    0.0100    0.0100    0.0100    0.0100    0.0100    0.0100    0.0100    0.0100
    0.0100    0.0100    0.0100    0.0100    0.0100    0.0100    0.0100    0.0100
    0.0100    0.0100    0.0100    0.0100    0.0100    0.0100    0.0100    0.0100
    0.0100    0.0100    0.0100    0.0100    0.0100    0.0100    0.0100    0.0100
    0.0100    0.0100    0.0100    0.0100    0.0100    0.0100    0.0100    0.0100
    0.0100    0.0100    0.0100    0.0100    0.0100    0.0100    0.0100    0.0100
    0.0100    0.0100    0.0100    0.0100    0.0100    0.0100    0.0100    0.0100
    0.0100    0.0100    0.0100    0.0100    0.0100    0.0100    0.0100    0.0100
    0.0100    0.0100    0.0100    0.0100    0.0100    0.0100    0.0100    0.0100
    0.0100    0.0100    0.0100    0.0100    0.0100    0.0100    0.0100    0.0100
    0.0100    0.0100    0.0100    0.0100    0.0100    0.0100    0.0100    0.0100
    0.0100    0.0100    0.0100    0.0100    0.0100    0.0100    0.0100    0.0100
    0.0100    0.0100    0.0100    0.0100    0.0100    0.0100    0.0100    0.0100
    0.0100    0.0100    0.0100    0.0100    0.0100    0.0100    0.0100    0.0100
    0.0100    0.0100    0.0100    0.0100    0.0100    0.0100    0.0100    0.0100
    0.0100    0.0100    0.0100    0.0100    0.0100    0.0100    0.0100    0.0100
    0.0100    0.0100    0.0100    0.0100    0.0100    0.0100    0.0100    0.0100
    0.0100    0.0100    0.0100    0.0100    0.0100    0.0100    0.0100    0.0100
    0.0100    0.0100    0.0100    0.0100    0.0100    0.0100    0.0100    0.0100
    0.0100    0.0100    0.0100    0.0100    0.0100    0.0100    0.0100    0.0100
    0.0100    0.0100    0.0100    0.0100    0.0100    0.0100    0.0100    0.0100
    0.0100    0.0100    0.0100    0.0100    0.0100    0.0100    0.0100    0.0100
    0.0100    0.0100    0.0100    0.0100    0.0100    0.0100    0.0100    0.0100
    0.0100    0.0100    0.0100    0.0100    0.0100    0.0100    0.0100    0.0100
    0.0100    0.0100    0.0100    0.0100    0.0100    0.0100    0.0100    0.0100
    0.0100    0.0100    0.0100    0.0100    0.0100    0.0100    0.0100    0.0100
    0.0100    0.0100    0.0100    0.0100    0.0100    0.0100    0.0100    0.0100
    0.0100    0.0100    0.0100    0.0100    0.0100    0.0100    0.0100    0.0100
    0.0100    0.0100    0.0100    0.0100    0.0100    0.0100    0.0100    0.0100
    0.0100    0.0100    0.0100    0.0100    0.0100    0.0100    0.0100    0.0100
    0.0100    0.0100    0.0100    0.0100    0.0100    0.0100    0.0100    0.0100
    0.0100    0.0100    0.0100    0.0100    0.0100    0.0100    0.0100    0.0100
    0.0100    0.0100    0.0100    0.0100    0.0100    0.0100    0.0100    0.0100
   </PP_RAB>
 </PP_MESH>
  <PP_LOCAL type="real"  size=" 832" columns="4">
   -3.1543472182E+01   -3.1595477861E+01   -3.1738684238E+01   -3.1907876202E+01
   -3.2049090208E+01   -3.2134850657E+01   -3.2161064654E+01   -3.2135919229E+01
   -3.2071125074E+01   -3.1977487622E+01   -3.1863433543E+01   -3.1734965146E+01
   -3.1596124820E+01   -3.1449541111E+01   -3.1296895244E+01   -3.1139269238E+01
   -3.0977385034E+01   -3.0811758505E+01   -3.0642792742E+01   -3.0470830739E+01
   -3.0296182438E+01   -3.0119136508E+01   -2.9939963685E+01   -2.9758915882E+01
   -2.9576223497E+01   -2.9392092176E+01   -2.9206699564E+01   -2.9020192187E+01
   -2.8832682446E+01   -2.8644245650E+01   -2.8454917119E+01   -2.8264689493E+01
   -2.8073510534E+01   -2.7881281832E+01   -2.7687858953E+01   -2.7493053565E+01
   -2.7296638051E+01   -2.7098352954E+01   -2.6897917338E+01   -2.6695041808E+01
   -2.6489443556E+01   -2.6280862453E+01   -2.6069076910E+01   -2.5853918167E+01
   -2.5635281701E+01   -2.5413134755E+01   -2.5187519388E+01   -2.4958550958E+01
   -2.4726412450E+01   -2.4491345455E+01   -2.4253638870E+01   -2.4013616480E+01
   -2.3771624510E+01   -2.3528020051E+01   -2.3283161005E+01   -2.3037397916E+01
   -2.2791067825E+01   -2.2544490063E+01   -2.2297963759E+01   -2.2051766798E+01
   -2.1806155869E+01   -2.1561367320E+01   -2.1317618536E+01   -2.1075109594E+01
   -2.0834025032E+01   -2.0594535589E+01   -2.0356799836E+01   -2.0120965623E+01
   -1.9887171342E+01   -1.9655546968E+01   -1.9426214906E+01   -1.9199290642E+01
   -1.8974883234E+01   -1.8753095639E+01   -1.8534024927E+01   -1.8317762377E+01
   -1.8104393493E+01   -1.7893997940E+01   -1.7686649434E+01   -1.7482415575E+01
   -1.7281357660E+01   -1.7083530461E+01   -1.6888981985E+01   -1.6697753231E+01
   -1.6509877922E+01   -1.6325382249E+01   -1.6144284597E+01   -1.5966595277E+01
   -1.5792316256E+01   -1.5621440882E+01   -1.5453953609E+01   -1.5289829728E+01
   -1.5129035080E+01   -1.4971525784E+01   -1.4817247947E+01   -1.4666137376E+01
   -1.4518119294E+01   -1.4373108049E+01   -1.4231006887E+01   -1.4091714366E+01
   -1.3955131814E+01   -1.3821165501E+01   -1.3689725929E+01   -1.3560727807E+01
   -1.3434089882E+01   -1.3309734782E+01   -1.3187588857E+01   -1.3067582033E+01
   -1.2949647665E+01   -1.2833722399E+01   -1.2719746028E+01   -1.2607661367E+01
   -1.2497414121E+01   -1.2388952765E+01   -1.2282228422E+01   -1.2177194753E+01
   -1.2073807846E+01   -1.1972026112E+01   -1.1871810178E+01   -1.1773122795E+01
   -1.1675928730E+01   -1.1580194681E+01   -1.1485889169E+01   -1.1392982452E+01
   -1.1301446420E+01   -1.1211254499E+01   -1.1122381547E+01   -1.1034803756E+01
   -1.0948498535E+01   -1.0863444413E+01   -1.0779620918E+01   -1.0697008466E+01
   -1.0615588252E+01   -1.0535342129E+01   -1.0456252495E+01   -1.0378302189E+01
   -1.0301474374E+01   -1.0225752444E+01   -1.0151119921E+01   -1.0077560375E+01
   -1.0005057341E+01   -9.9335942556E+00   -9.8631544036E+00   -9.7937208732E+00
   -9.7252765298E+00   -9.6578040015E+00   -9.5912856774E+00   -9.5257037201E+00
   -9.4610400905E+00   -9.3972765837E+00   -9.3343948754E+00   -9.2723765770E+00
   -9.2112032974E+00   -9.1508567097E+00   -9.0913186218E+00   -9.0325710493E+00
   -8.9745962819E+00   -8.9173769547E+00   -8.8608961101E+00   -8.8051372678E+00
   -8.7500845386E+00   -8.6957226699E+00   -8.6420370364E+00   -8.5890136416E+00
   -8.5366390904E+00   -8.4849005892E+00   -8.4337859412E+00   -8.3832835124E+00
   -8.3333822517E+00   -8.2840715483E+00   -8.2353410212E+00   -8.1871805070E+00
   -8.1395800457E+00   -8.0925298829E+00   -8.0460205222E+00   -8.0000427058E+00
   -7.9545873764E+00   -7.9096456752E+00   -7.8652089447E+00   -7.8212687218E+00
   -7.7778167313E+00   -7.7348448806E+00   -7.6923452553E+00   -7.6503101136E+00
   -7.6087318823E+00   -7.5676031519E+00   -7.5269166722E+00   -7.4866653481E+00
   -7.4468422355E+00   -7.4074405372E+00   -7.3684535991E+00   -7.3298749066E+00
   -7.2916980807E+00   -7.2539168747E+00   -7.2165251706E+00   -7.1795169759E+00
   -7.1428864206E+00   -7.1066277536E+00   -7.0707353403E+00   -7.0352036590E+00
   -7.0000272988E+00   -6.9652009562E+00   -6.9307194330E+00   -6.8965776332E+00
   -6.8627705608E+00   -6.8292933173E+00   -6.7961410993E+00   -6.7633091963E+00
   -6.7307929882E+00   -6.6985879436E+00   -6.6666896172E+00   -6.6350936480E+00
   -6.6037957574E+00   -6.5727917470E+00   -6.5420774970E+00   -6.5116489643E+00
   -6.4815021804E+00   -6.4516332503E+00   -6.4220383502E+00   -6.3927137262E+00
   -6.3636556929E+00   -6.3348606312E+00   -6.3063249876E+00   -6.2780452720E+00
   -6.2500180569E+00   -6.2222399755E+00   -6.1947077208E+00   -6.1674180439E+00
   -6.1403677530E+00   -6.1135537121E+00   -6.0869728397E+00   -6.0606221078E+00
   -6.0344985401E+00   -6.0085992117E+00   -5.9829212478E+00   -5.9574618225E+00
   -5.9322181579E+00   -5.9071875229E+00   -5.8823672320E+00   -5.8577546450E+00
   -5.8333471656E+00   -5.8091422406E+00   -5.7851373589E+00   -5.7613300510E+00
   -5.7377178875E+00   -5.7142984790E+00   -5.6910694748E+00   -5.6680285623E+00
   -5.6451734662E+00   -5.6225019476E+00   -5.6000118038E+00   -5.5777008667E+00
   -5.5555670031E+00   -5.5336081132E+00   -5.5118221304E+00   -5.4902070204E+00
   -5.4687607809E+00   -5.4474814406E+00   -5.4263670588E+00   -5.4054157247E+00
   -5.3846255570E+00   -5.3639947032E+00   -5.3435213391E+00   -5.3232036682E+00
   -5.3030399212E+00   -5.2830283557E+00   -5.2631672552E+00   -5.2434549291E+00
   -5.2238897120E+00   -5.2044699633E+00   -5.1851940666E+00   -5.1660604295E+00
   -5.1470674828E+00   -5.1282136806E+00   -5.1094974993E+00   -5.0909174376E+00
   -5.0724720158E+00   -5.0541597758E+00   -5.0359792804E+00   -5.0179291129E+00
   -5.0000078769E+00   -4.9822141958E+00   -4.9645467128E+00   -4.9470040899E+00
   -4.9295850083E+00   -4.9122881674E+00   -4.8951122851E+00   -4.8780560968E+00
   -4.8611183557E+00   -4.8442978323E+00   -4.8275933140E+00   -4.8110036047E+00
   -4.7945275250E+00   -4.7781639113E+00   -4.7619116160E+00   -4.7457695070E+00
   -4.7297364676E+00   -4.7138113960E+00   -4.6979932053E+00   -4.6822808230E+00
   -4.6666731911E+00   -4.6511692655E+00   -4.6357680159E+00   -4.6204684258E+00
   -4.6052694919E+00   -4.5901702242E+00   -4.5751696454E+00   -4.5602667912E+00
   -4.5454607096E+00   -4.5307504612E+00   -4.5161351184E+00   -4.5016137659E+00
   -4.4871854997E+00   -4.4728494276E+00   -4.4586046689E+00   -4.4444503538E+00
   -4.4303856237E+00   -4.4164096307E+00   -4.4025215377E+00   -4.3887205180E+00
   -4.3750057552E+00   -4.3613764433E+00   -4.3478317860E+00   -4.3343709971E+00
   -4.3209933000E+00   -4.3076979277E+00   -4.2944841226E+00   -4.2813511363E+00
   -4.2682982296E+00   -4.2553246722E+00   -4.2424297429E+00   -4.2296127290E+00
   -4.2168729263E+00   -4.2042096393E+00   -4.1916221807E+00   -4.1791098714E+00
   -4.1666720404E+00   -4.1543080246E+00   -4.1420171690E+00   -4.1297988261E+00
   -4.1176523560E+00   -4.1055771263E+00   -4.0935725123E+00   -4.0816378962E+00
   -4.0697726675E+00   -4.0579762230E+00   -4.0462479661E+00   -4.0345873073E+00
   -4.0229936640E+00   -4.0114664600E+00   -4.0000051258E+00   -3.9886090984E+00
   -3.9772778213E+00   -3.9660107441E+00   -3.9548073228E+00   -3.9436670193E+00
   -3.9325893019E+00   -3.9215736445E+00   -3.9106195272E+00   -3.8997264356E+00
   -3.8888938611E+00   -3.8781213009E+00   -3.8674082576E+00   -3.8567542393E+00
   -3.8461587596E+00   -3.8356213372E+00   -3.8251414963E+00   -3.8147187662E+00
   -3.8043526814E+00   -3.7940427812E+00   -3.7837886102E+00   -3.7735897177E+00
   -3.7634456578E+00   -3.7533559896E+00   -3.7433202767E+00   -3.7333380876E+00
   -3.7234089952E+00   -3.7135325768E+00   -3.7037084146E+00   -3.6939360948E+00
   -3.6842152082E+00   -3.6745453497E+00   -3.6649261187E+00   -3.6553571186E+00
   -3.6458379568E+00   -3.6363682452E+00   -3.6269475993E+00   -3.6175756387E+00
   -3.6082519872E+00   -3.5989762720E+00   -3.5897481245E+00   -3.5805671797E+00
   -3.5714330763E+00   -3.5623454567E+00   -3.5533039671E+00   -3.5443082571E+00
   -3.5353579798E+00   -3.5264527919E+00   -3.5175923536E+00   -3.5087763284E+00
   -3.5000043832E+00   -3.4912761882E+00   -3.4825914170E+00   -3.4739497462E+00
   -3.4653508558E+00   -3.4567944290E+00   -3.4482801520E+00   -3.4398077140E+00
   -3.4313768074E+00   -3.4229871277E+00   -3.4146383731E+00   -3.4063302449E+00
   -3.3980624473E+00   -3.3898346874E+00   -3.3816466749E+00   -3.3734981227E+00
   -3.3653887461E+00   -3.3573182632E+00   -3.3492863950E+00   -3.3412928649E+00
   -3.3333373992E+00   -3.3254197265E+00   -3.3175395782E+00   -3.3096966882E+00
   -3.3018907929E+00   -3.2941216311E+00   -3.2863889441E+00   -3.2786924757E+00
   -3.2710319720E+00   -3.2634071815E+00   -3.2558178550E+00   -3.2482637457E+00
   -3.2407446091E+00   -3.2332602028E+00   -3.2258102867E+00   -3.2183946231E+00
   -3.2110129761E+00   -3.2036651124E+00   -3.1963508005E+00   -3.1890698110E+00
   -3.1818219169E+00   -3.1746068930E+00   -3.1674245162E+00   -3.1602745653E+00
   -3.1531568214E+00   -3.1460710673E+00   -3.1390170877E+00   -3.1319946696E+00
   -3.1250036014E+00   -3.1180436738E+00   -3.1111146791E+00   -3.1042164116E+00
   -3.0973486673E+00   -3.0905112441E+00   -3.0837039417E+00   -3.0769265615E+00
   -3.0701789065E+00   -3.0634607817E+00   -3.0567719936E+00   -3.0501123505E+00
   -3.0434816623E+00   -3.0368797406E+00   -3.0303063986E+00   -3.0237614512E+00
   -3.0172447146E+00   -3.0107560070E+00   -3.0042951479E+00   -2.9978619583E+00
   -2.9914562610E+00   -2.9850778800E+00   -2.9787266410E+00   -2.9724023712E+00
   -2.9661048991E+00   -2.9598340547E+00   -2.9535896696E+00   -2.9473715766E+00
   -2.9411796099E+00   -2.9350136054E+00   -2.9288734000E+00   -2.9227588322E+00
   -2.9166697418E+00   -2.9106059697E+00   -2.9045673585E+00   -2.8985537519E+00
   -2.8925649949E+00   -2.8866009338E+00   -2.8806614161E+00   -2.8747462906E+00
   -2.8688554075E+00   -2.8629886179E+00   -2.8571457744E+00   -2.8513267306E+00
   -2.8455313415E+00   -2.8397594630E+00   -2.8340109525E+00   -2.8282856682E+00
   -2.8225834698E+00   -2.8169042178E+00   -2.8112477741E+00   -2.8056140015E+00
   -2.8000027639E+00   -2.7944139265E+00   -2.7888473554E+00   -2.7833029177E+00
   -2.7777804818E+00   -2.7722799169E+00   -2.7668010933E+00   -2.7613438825E+00
   -2.7559081568E+00   -2.7504937895E+00   -2.7451006550E+00   -2.7397286286E+00
   -2.7343775868E+00   -2.7290474067E+00   -2.7237379666E+00   -2.7184491457E+00
   -2.7131808241E+00   -2.7079328828E+00   -2.7027052039E+00   -2.6974976702E+00
   -2.6923101654E+00   -2.6871425743E+00   -2.6819947824E+00   -2.6768666762E+00
   -2.6717581429E+00   -2.6666690706E+00   -2.6615993485E+00   -2.6565488663E+00
   -2.6515175147E+00   -2.6465051852E+00   -2.6415117702E+00   -2.6365371628E+00