<UPF version="2.0.1">
  <PP_INFO>

 This pseudopotential file has been produced using the code
 ONCVPSP  (Optimized Norm-Conservinng Vanderbilt PSeudopotential)
 scalar-relativistic version 3.2.2 08/07/2015 by D. R. Hamann
 The code is available through a link at URL www.mat-simresearch.com.
 Documentation with the package provides a full discription of the
 input data below.


 While it is not required under the terms of the GNU GPL, it is
 suggested that you cite D. R. Hamann, Phys. Rev. B 88, 085117 (2013)
 in any publication using these pseudopotentials.

    <PP_INPUTFILE>
# ATOM AND REFERENCE CONFIGURATION
# atsym  z   nc   nv     iexc    psfile
  Ne 10.00    1    2       4      upf
#
#   n    l    f        energy (Ha)
    1    0    2.00
    2    0    2.00
    2    1    6.00
#
# PSEUDOPOTENTIAL AND OPTIMIZATION
# lmax
    1
#
#   l,   rc,     ep,   ncon, nbas, qcut
    0    2.62   -1.34    5    8    7.97
    1    2.65   -0.49    5    8    6.61
#
# LOCAL POTENTIAL
# lloc, lpopt,  rc(5),   dvloc0
    4    5      2.62       0.00
#
# VANDERBILT-KLEINMAN-BYLANDER PROJECTORs
# l, nproj, debl
    0    2    1.5486
    1    2    1.1100
#
# MODEL CORE CHARGE
# icmod, fcfact
    0    0.00
#
# LOG DERIVATIVE ANALYSIS
# epsh1, epsh2, depsh
   -5.00    3.00    0.02
#
# OUTPUT GRID
# rlmax, drl
    6.00    0.01
#
# TEST CONFIGURATIONS
# ncnf
    0
# nvcnf
#   n    l    f
    </PP_INPUTFILE>
  </PP_INFO>
  <!--                               -->
  <!-- END OF HUMAN READABLE SECTION -->
  <!--                               -->
    <PP_HEADER
       generated="Generated using ONCVPSP code by D. R. Hamann"
       author="anonymous"
       date="160328"
       comment=""
       element="Ne"
       pseudo_type="NC"
       relativistic="scalar"
       is_ultrasoft="F"
       is_paw="F"
       is_coulomb="F"
       has_so="F"
       has_wfc="F"
       has_gipaw="F"
       core_correction="F"
       functional="PBE"
       z_valence="    8.00"
       total_psenergy="  -6.13601464292E+01"
       rho_cutoff="   7.57000000000E+00"
       l_max="1"
       l_local="-1"
       mesh_size="   758"
       number_of_wfc="2"
       number_of_proj="4"/>
 <PP_MESH>
   <PP_R type="real"  size=" 758" columns="8">
    0.0000    0.0100    0.0200    0.0300    0.0400    0.0500    0.0600    0.0700
    0.0800    0.0900    0.1000    0.1100    0.1200    0.1300    0.1400    0.1500
    0.1600    0.1700    0.1800    0.1900    0.2000    0.2100    0.2200    0.2300
    0.2400    0.2500    0.2600    0.2700    0.2800    0.2900    0.3000    0.3100
    0.3200    0.3300    0.3400    0.3500    0.3600    0.3700    0.3800    0.3900
    0.4000    0.4100    0.4200    0.4300    0.4400    0.4500    0.4600    0.4700
    0.4800    0.4900    0.5000    0.5100    0.5200    0.5300    0.5400    0.5500
    0.5600    0.5700    0.5800    0.5900    0.6000    0.6100    0.6200    0.6300
    0.6400    0.6500    0.6600    0.6700    0.6800    0.6900    0.7000    0.7100
    0.7200    0.7300    0.7400    0.7500    0.7600    0.7700    0.7800    0.7900
    0.8000    0.8100    0.8200    0.8300    0.8400    0.8500    0.8600    0.8700
    0.8800    0.8900    0.9000    0.9100    0.9200    0.9300    0.9400    0.9500
    0.9600    0.9700    0.9800    0.9900    1.0000    1.0100    1.0200    1.0300
    1.0400    1.0500    1.0600    1.0700    1.0800    1.0900    1.1000    1.1100
    1.1200    1.1300    1.1400    1.1500    1.1600    1.1700    1.1800    1.1900
    1.2000    1.2100    1.2200    1.2300    1.2400    1.2500    1.2600    1.2700
    1.2800    1.2900    1.3000    1.3100    1.3200    1.3300    1.3400    1.3500
    1.3600    1.3700    1.3800    1.3900    1.4000    1.4100    1.4200    1.4300
    1.4400    1.4500    1.4600    1.4700    1.4800    1.4900    1.5000    1.5100
    1.5200    1.5300    1.5400    1.5500    1.5600    1.5700    1.5800    1.5900
    1.6000    1.6100    1.6200    1.6300    1.6400    1.6500    1.6600    1.6700
    1.6800    1.6900    1.7000    1.7100    1.7200    1.7300    1.7400    1.7500
    1.7600    1.7700    1.7800    1.7900    1.8000    1.8100    1.8200    1.8300
    1.8400    1.8500    1.8600    1.8700    1.8800    1.8900    1.9000    1.9100
    1.9200    1.9300    1.9400    1.9500    1.9600    1.9700    1.9800    1.9900
    2.0000    2.0100    2.0200    2.0300    2.0400    2.0500    2.0600    2.0700
    2.0800    2.0900    2.1000    2.1100    2.1200    2.1300    2.1400    2.1500
    2.1600    2.1700    2.1800    2.1900    2.2000    2.2100    2.2200    2.2300
    2.2400    2.2500    2.2600    2.2700    2.2800    2.2900    2.3000    2.3100
    2.3200    2.3300    2.3400    2.3500    2.3600    2.3700    2.3800    2.3900
    2.4000    2.4100    2.4200    2.4300    2.4400    2.4500    2.4600    2.4700
    2.4800    2.4900    2.5000    2.5100    2.5200    2.5300    2.5400    2.5500
    2.5600    2.5700    2.5800    2.5900    2.6000    2.6100    2.6200    2.6300
    2.6400    2.6500    2.6600    2.6700    2.6800    2.6900    2.7000    2.7100
    2.7200    2.7300    2.7400    2.7500    2.7600    2.7700    2.7800    2.7900
    2.8000    2.8100    2.8200    2.8300    2.8400    2.8500    2.8600    2.8700
    2.8800    2.8900    2.9000    2.9100    2.9200    2.9300    2.9400    2.9500
    2.9600    2.9700    2.9800    2.9900    3.0000    3.0100    3.0200    3.0300
    3.0400    3.0500    3.0600    3.0700    3.0800    3.0900    3.1000    3.1100
    3.1200    3.1300    3.1400    3.1500    3.1600    3.1700    3.1800    3.1900
    3.2000    3.2100    3.2200    3.2300    3.2400    3.2500    3.2600    3.2700
    3.2800    3.2900    3.3000    3.3100    3.3200    3.3300    3.3400    3.3500
    3.3600    3.3700    3.3800    3.3900    3.4000    3.4100    3.4200    3.4300
    3.4400    3.4500    3.4600    3.4700    3.4800    3.4900    3.5000    3.5100
    3.5200    3.5300    3.5400    3.5500    3.5600    3.5700    3.5800    3.5900
    3.6000    3.6100    3.6200    3.6300    3.6400    3.6500    3.6600    3.6700
    3.6800    3.6900    3.7000    3.7100    3.7200    3.7300    3.7400    3.7500
    3.7600    3.7700    3.7800    3.7900    3.8000    3.8100    3.8200    3.8300
    3.8400    3.8500    3.8600    3.8700    3.8800    3.8900    3.9000    3.9100
    3.9200    3.9300    3.9400    3.9500    3.9600    3.9700    3.9800    3.9900
    4.0000    4.0100    4.0200    4.0300    4.0400    4.0500    4.0600    4.0700
    4.0800    4.0900    4.1000    4.1100    4.1200    4.1300    4.1400    4.1500
    4.1600    4.1700    4.1800    4.1900    4.2000    4.2100    4.2200    4.2300
    4.2400    4.2500    4.2600    4.2700    4.2800    4.2900    4.3000    4.3100
    4.3200    4.3300    4.3400    4.3500    4.3600    4.3700    4.3800    4.3900
    4.4000    4.4100    4.4200    4.4300    4.4400    4.4500    4.4600    4.4700
    4.4800    4.4900    4.5000    4.5100    4.5200    4.5300    4.5400    4.5500
    4.5600    4.5700    4.5800    4.5900    4.6000    4.6100    4.6200    4.6300
    4.6400    4.6500    4.6600    4.6700    4.6800    4.6900    4.7000    4.7100
    4.7200    4.7300    4.7400    4.7500    4.7600    4.7700    4.7800    4.7900
    4.8000    4.8100    4.8200    4.8300    4.8400    4.8500    4.8600    4.8700
    4.8800    4.8900    4.9000    4.9100    4.9200    4.9300    4.9400    4.9500
    4.9600    4.9700    4.9800    4.9900    5.0000    5.0100    5.0200    5.0300
    5.0400    5.0500    5.0600    5.0700    5.0800    5.0900    5.1000    5.1100
    5.1200    5.1300    5.1400    5.1500    5.1600    5.1700    5.1800    5.1900
    5.2000    5.2100    5.2200    5.2300    5.2400    5.2500    5.2600    5.2700
    5.2800    5.2900    5.3000    5.3100    5.3200    5.3300    5.3400    5.3500
    5.3600    5.3700    5.3800    5.3900    5.4000    5.4100    5.4200    5.4300
    5.4400    5.4500    5.4600    5.4700    5.4800    5.4900    5.5000    5.5100
    5.5200    5.5300    5.5400    5.5500    5.5600    5.5700    5.5800    5.5900
    5.6000    5.6100    5.6200    5.6300    5.6400    5.6500    5.6600    5.6700
    5.6800    5.6900    5.7000    5.7100    5.7200    5.7300    5.7400    5.7500
    5.7600    5.7700    5.7800    5.7900    5.8000    5.8100    5.8200    5.8300
    5.8400    5.8500    5.8600    5.8700    5.8800    5.8900    5.9000    5.9100
    5.9200    5.9300    5.9400    5.9500    5.9600    5.9700    5.9800    5.9900
    6.0000    6.0100    6.0200    6.0300    6.0400    6.0500    6.0600    6.0700
    6.0800    6.0900    6.1000    6.1100    6.1200    6.1300    6.1400    6.1500
    6.1600    6.1700    6.1800    6.1900    6.2000    6.2100    6.2200    6.2300
    6.2400    6.2500    6.2600    6.2700    6.2800    6.2900    6.3000    6.3100
    6.3200    6.3300    6.3400    6.3500    6.3600    6.3700    6.3800    6.3900
    6.4000    6.4100    6.4200    6.4300    6.4400    6.4500    6.4600    6.4700
    6.4800    6.4900    6.5000    6.5100    6.5200    6.5300    6.5400    6.5500
    6.5600    6.5700    6.5800    6.5900    6.6000    6.6100    6.6200    6.6300
    6.6400    6.6500    6.6600    6.6700    6.6800    6.6900    6.7000    6.7100
    6.7200    6.7300    6.7400    6.7500    6.7600    6.7700    6.7800    6.7900
    6.8000    6.8100    6.8200    6.8300    6.8400    6.8500    6.8600    6.8700
    6.8800    6.8900    6.9000    6.9100    6.9200    6.9300    6.9400    6.9500
    6.9600    6.9700    6.9800    6.9900    7.0000    7.0100    7.0200    7.0300
    7.0400    7.0500    7.0600    7.0700    7.0800    7.0900    7.1000    7.1100
    7.1200    7.1300    7.1400    7.1500    7.1600    7.1700    7.1800    7.1900
    7.2000    7.2100    7.2200    7.2300    7.2400    7.2500    7.2600    7.2700
    7.2800    7.2900    7.3000    7.3100    7.3200    7.3300    7.3400    7.3500
    7.3600    7.3700    7.3800    7.3900    7.4000    7.4100    7.4200    7.4300
    7.4400    7.4500    7.4600    7.4700    7.4800    7.4900    7.5000    7.5100
    7.5200    7.5300    7.5400    7.5500    7.5600    7.5700
   </PP_R>
   <PP_RAB type="real"  size=" 758" columns="8">
    0.0100    0.0100    0.0100    0.0100    0.0100    0.0100    0.0100    0.0100
    0.0100    0.0100    0.0100    0.0100    0.0100    0.0100    0.0100    0.0100
    0.0100    0.0100    0.0100    0.0100    0.0100    0.0100    0.0100    0.0100
    0.0100    0.0100    0.0100    0.0100    0.0100    0.0100    0.0100    0.0100
    0.0100    0.0100    0.0100    0.0100    0.0100    0.0100    0.0100    0.0100
    0.0100    0.0100    0.0100    0.0100    0.0100    0.0100    0.0100    0.0100
    0.0100    0.0100    0.0100    0.0100    0.0100    0.0100    0.0100    0.0100
    0.0100    0.0100    0.0100    0.0100    0.0100    0.0100    0.0100    0.0100
    0.0100    0.0100    0.0100    0.0100    0.0100    0.0100    0.0100    0.0100
    0.0100    0.0100    0.0100    0.0100    0.0100    0.0100    0.0100    0.0100
    0.0100    0.0100    0.0100    0.0100    0.0100    0.0100    0.0100    0.0100
    0.0100    0.0100    0.0100    0.0100    0.0100    0.0100    0.0100    0.0100
    0.0100    0.0100    0.0100    0.0100    0.0100    0.0100    0.0100    0.0100
    0.0100    0.0100    0.0100    0.0100    0.0100    0.0100    0.0100    0.0100
    0.0100    0.0100    0.0100    0.0100    0.0100    0.0100    0.0100    0.0100
    0.0100    0.0100    0.0100    0.0100    0.0100    0.0100    0.0100    0.0100
    0.0100    0.0100    0.0100    0.0100    0.0100    0.0100    0.0100    0.0100
    0.0100    0.0100    0.0100    0.0100    0.0100    0.0100    0.0100    0.0100
    0.0100    0.0100    0.0100    0.0100    0.0100    0.0100    0.0100    0.0100
    0.0100    0.0100    0.0100    0.0100    0.0100    0.0100    0.0100    0.0100
    0.0100    0.0100    0.0100    0.0100    0.0100    0.0100    0.0100    0.0100
    0.0100    0.0100    0.0100    0.0100    0.0100    0.0100    0.0100    0.0100
    0.0100    0.0100    0.0100    0.0100    0.0100    0.0100    0.0100    0.0100
    0.0100    0.0100    0.0100    0.0100    0.0100    0.0100    0.0100    0.0100
    0.0100    0.0100    0.0100    0.0100    0.0100    0.0100    0.0100    0.0100
    0.0100    0.0100    0.0100    0.0100    0.0100    0.0100    0.0100    0.0100
    0.0100    0.0100    0.0100    0.0100    0.0100    0.0100    0.0100    0.0100
    0.0100    0.0100    0.0100    0.0100    0.0100    0.0100    0.0100    0.0100
    0.0100    0.0100    0.0100    0.0100    0.0100    0.0100    0.0100    0.0100
    0.0100    0.0100    0.0100    0.0100    0.0100    0.0100    0.0100    0.0100
    0.0100    0.0100    0.0100    0.0100    0.0100    0.0100    0.0100    0.0100
    0.0100    0.0100    0.0100    0.0100    0.0100    0.0100    0.0100    0.0100
    0.0100    0.0100    0.0100    0.0100    0.0100    0.0100    0.0100    0.0100
    0.0100    0.0100    0.0100    0.0100    0.0100    0.0100    0.0100    0.0100
    0.0100    0.0100    0.0100    0.0100    0.0100    0.0100    0.0100    0.0100
    0.0100    0.0100    0.0100    0.0100    0.0100    0.0100    0.0100    0.0100
    0.0100    0.0100    0.0100    0.0100    0.0100    0.0100    0.0100    0.0100
    0.0100    0.0100    0.0100    0.0100    0.0100    0.0100    0.0100    0.0100
    0.0100    0.0100    0.0100    0.0100    0.0100    0.0100    0.0100    0.0100
    0.0100    0.0100    0.0100    0.0100    0.0100    0.0100    0.0100    0.0100
    0.0100    0.0100    0.0100    0.0100    0.0100    0.0100    0.0100    0.0100
    0.0100    0.0100    0.0100    0.0100    0.0100    0.0100    0.0100    0.0100
    0.0100    0.0100    0.0100    0.0100    0.0100    0.0100    0.0100    0.0100
    0.0100    0.0100    0.0100    0.0100    0.0100    0.0100    0.0100    0.0100
    0.0100    0.0100    0.0100    0.0100    0.0100    0.0100    0.0100    0.0100
    0.0100    0.0100    0.0100    0.0100    0.0100    0.0100    0.0100    0.0100
    0.0100    0.0100    0.0100    0.0100    0.0100    0.0100    0.0100    0.0100
    0.0100    0.0100    0.0100    0.0100    0.0100    0.0100    0.0100    0.0100
    0.0100    0.0100    0.0100    0.0100    0.0100    0.0100    0.0100    0.0100
    0.0100    0.0100    0.0100    0.0100    0.0100    0.0100    0.0100    0.0100
    0.0100    0.0100    0.0100    0.0100    0.0100    0.0100    0.0100    0.0100
    0.0100    0.0100    0.0100    0.0100    0.0100    0.0100    0.0100    0.0100
    0.0100    0.0100    0.0100    0.0100    0.0100    0.0100    0.0100    0.0100
    0.0100    0.0100    0.0100    0.0100    0.0100    0.0100    0.0100    0.0100
    0.0100    0.0100    0.0100    0.0100    0.0100    0.0100    0.0100    0.0100
    0.0100    0.0100    0.0100    0.0100    0.0100    0.0100    0.0100    0.0100
    0.0100    0.0100    0.0100    0.0100    0.0100    0.0100    0.0100    0.0100
    0.0100    0.0100    0.0100    0.0100    0.0100    0.0100    0.0100    0.0100
    0.0100    0.0100    0.0100    0.0100    0.0100    0.0100    0.0100    0.0100
    0.0100    0.0100    0.0100    0.0100    0.0100    0.0100    0.0100    0.0100
    0.0100    0.0100    0.0100    0.0100    0.0100    0.0100    0.0100    0.0100
    0.0100    0.0100    0.0100    0.0100    0.0100    0.0100    0.0100    0.0100
    0.0100    0.0100    0.0100    0.0100    0.0100    0.0100    0.0100    0.0100
    0.0100    0.0100    0.0100    0.0100    0.0100    0.0100    0.0100    0.0100
    0.0100    0.0100    0.0100    0.0100    0.0100    0.0100    0.0100    0.0100
    0.0100    0.0100    0.0100    0.0100    0.0100    0.0100    0.0100    0.0100
    0.0100    0.0100    0.0100    0.0100    0.0100    0.0100    0.0100    0.0100
    0.0100    0.0100    0.0100    0.0100    0.0100    0.0100    0.0100    0.0100
    0.0100    0.0100    0.0100    0.0100    0.0100    0.0100    0.0100    0.0100
    0.0100    0.0100    0.0100    0.0100    0.0100    0.0100    0.0100    0.0100
    0.0100    0.0100    0.0100    0.0100    0.0100    0.0100    0.0100    0.0100
    0.0100    0.0100    0.0100    0.0100    0.0100    0.0100    0.0100    0.0100
    0.0100    0.0100    0.0100    0.0100    0.0100    0.0100    0.0100    0.0100
    0.0100    0.0100    0.0100    0.0100    0.0100    0.0100    0.0100    0.0100
    0.0100    0.0100    0.0100    0.0100    0.0100    0.0100    0.0100    0.0100
    0.0100    0.0100    0.0100    0.0100    0.0100    0.0100    0.0100    0.0100
    0.0100    0.0100    0.0100    0.0100    0.0100    0.0100    0.0100    0.0100
    0.0100    0.0100    0.0100    0.0100    0.0100    0.0100    0.0100    0.0100
    0.0100    0.0100    0.0100    0.0100    0.0100    0.0100    0.0100    0.0100
    0.0100    0.0100    0.0100    0.0100    0.0100    0.0100    0.0100    0.0100
    0.0100    0.0100    0.0100    0.0100    0.0100    0.0100    0.0100    0.0100
    0.0100    0.0100    0.0100    0.0100    0.0100    0.0100    0.0100    0.0100
    0.0100    0.0100    0.0100    0.0100    0.0100    0.0100    0.0100    0.0100
    0.0100    0.0100    0.0100    0.0100    0.0100    0.0100    0.0100    0.0100
    0.0100    0.0100    0.0100    0.0100    0.0100    0.0100    0.0100    0.0100
    0.0100    0.0100    0.0100    0.0100    0.0100    0.0100    0.0100    0.0100
    0.0100    0.0100    0.0100    0.0100    0.0100    0.0100    0.0100    0.0100
    0.0100    0.0100    0.0100    0.0100    0.0100    0.0100    0.0100    0.0100
    0.0100    0.0100    0.0100    0.0100    0.0100    0.0100    0.0100    0.0100
    0.0100    0.0100    0.0100    0.0100    0.0100    0.0100    0.0100    0.0100
    0.0100    0.0100    0.0100    0.0100    0.0100    0.0100    0.0100    0.0100
    0.0100    0.0100    0.0100    0.0100    0.0100    0.0100    0.0100    0.0100
    0.0100    0.0100    0.0100    0.0100    0.0100    0.0100    0.0100    0.0100
    0.0100    0.0100    0.0100    0.0100    0.0100    0.0100    0.0100    0.0100
    0.0100    0.0100    0.0100    0.0100    0.0100    0.0100
   </PP_RAB>
 </PP_MESH>
  <PP_LOCAL type="real"  size=" 758" columns="4">
   -1.7610617261E+01   -1.7611484925E+01   -1.7613949835E+01   -1.7617655419E+01
   -1.7622056948E+01   -1.7626496648E+01   -1.7630281418E+01   -1.7632753547E+01
   -1.7633344849E+01   -1.7631609904E+01   -1.7627238941E+01   -1.7620054163E+01
   -1.7609994732E+01   -1.7597095622E+01   -1.7581464586E+01   -1.7563260215E+01
   -1.7542672821E+01   -1.7519908901E+01   -1.7495179235E+01   -1.7468690290E+01
   -1.7440638386E+01   -1.7411206054E+01   -1.7380560027E+01   -1.7348850408E+01
   -1.7316210631E+01   -1.7282757936E+01   -1.7248594135E+01   -1.7213806537E+01
   -1.7178468922E+01   -1.7142642507E+01   -1.7106376875E+01   -1.7069710833E+01
   -1.7032673220E+01   -1.6995283645E+01   -1.6957553171E+01   -1.6919484967E+01
   -1.6881074922E+01   -1.6842312242E+01   -1.6803180040E+01   -1.6763655934E+01
   -1.6723712649E+01   -1.6683318643E+01   -1.6642438750E+01   -1.6601034854E+01
   -1.6559066582E+01   -1.6516492021E+01   -1.6473268450E+01   -1.6429353081E+01
   -1.6384703794E+01   -1.6339279870E+01   -1.6293042685E+01   -1.6245956372E+01
   -1.6197988431E+01   -1.6149110271E+01   -1.6099297678E+01   -1.6048531192E+01
   -1.5996796402E+01   -1.5944084129E+01   -1.5890390523E+01   -1.5835717055E+01
   -1.5780070424E+01   -1.5723462369E+01   -1.5665909413E+01   -1.5607432542E+01
   -1.5548056828E+01   -1.5487811014E+01   -1.5426727074E+01   -1.5364839760E+01
   -1.5302186142E+01   -1.5238805164E+01   -1.5174737209E+01   -1.5110023698E+01
   -1.5044706713E+01   -1.4978828654E+01   -1.4912431941E+01   -1.4845558743E+01
   -1.4778250755E+01   -1.4710549009E+01   -1.4642493715E+01   -1.4574124140E+01
   -1.4505478516E+01   -1.4436593970E+01   -1.4367506482E+01   -1.4298250858E+01
   -1.4228860719E+01   -1.4159368510E+01   -1.4089805508E+01   -1.4020201846E+01
   -1.3950586540E+01   -1.3880987521E+01   -1.3811431664E+01   -1.3741944821E+01
   -1.3672551858E+01   -1.3603276679E+01   -1.3534142257E+01   -1.3465170660E+01
   -1.3396383074E+01   -1.3327799819E+01   -1.3259440366E+01   -1.3191323350E+01
   -1.3123466577E+01   -1.3055887030E+01   -1.2988600869E+01   -1.2921623433E+01
   -1.2854969233E+01   -1.2788651948E+01   -1.2722684413E+01   -1.2657078610E+01
   -1.2591845654E+01   -1.2526995779E+01   -1.2462538324E+01   -1.2398481710E+01
   -1.2334833432E+01   -1.2271600032E+01   -1.2208787091E+01   -1.2146399205E+01
   -1.2084439975E+01   -1.2022911990E+01   -1.1961816820E+01   -1.1901155005E+01
   -1.1840926052E+01   -1.1781128434E+01   -1.1721759598E+01   -1.1662815975E+01
   -1.1604292996E+01   -1.1546185117E+01   -1.1488485855E+01   -1.1431187824E+01
   -1.1374282787E+01   -1.1317761713E+01   -1.1261614843E+01   -1.1205831765E+01
   -1.1150401501E+01   -1.1095312595E+01   -1.1040553211E+01   -1.0986111242E+01
   -1.0931974414E+01   -1.0878130400E+01   -1.0824566940E+01   -1.0771271948E+01
   -1.0718233633E+01   -1.0665440603E+01   -1.0612881980E+01   -1.0560547488E+01
   -1.0508427556E+01   -1.0456513392E+01   -1.0404797057E+01   -1.0353271526E+01
   -1.0301930735E+01   -1.0250769615E+01   -1.0199784112E+01   -1.0148971200E+01
   -1.0098328872E+01   -1.0047856129E+01   -9.9975529452E+00   -9.9474202356E+00
   -9.8974598053E+00   -9.8476742942E+00   -9.7980671135E+00   -9.7486423769E+00
   -9.6994048280E+00   -9.6503597635E+00   -9.6015129559E+00   -9.5528705747E+00
   -9.5044391090E+00   -9.4562252911E+00   -9.4082360228E+00   -9.3604783050E+00
   -9.3129591715E+00   -9.2656856263E+00   -9.2186645870E+00   -9.1719028321E+00
   -9.1254069545E+00   -9.0791833196E+00   -9.0332380291E+00   -8.9875768898E+00
   -8.9422053879E+00   -8.8971286671E+00   -8.8523515122E+00   -8.8078783367E+00
   -8.7637131740E+00   -8.7198596723E+00   -8.6763210931E+00   -8.6331003123E+00
   -8.5901998236E+00   -8.5476217448E+00   -8.5053678257E+00   -8.4634394572E+00
   -8.4218376830E+00   -8.3805632109E+00   -8.3396164261E+00   -8.2989974045E+00
   -8.2587059274E+00   -8.2187414952E+00   -8.1791033421E+00   -8.1397904506E+00
   -8.1008015662E+00   -8.0621352109E+00   -8.0237896976E+00   -7.9857631430E+00
   -7.9480534813E+00   -7.9106584758E+00   -7.8735757314E+00   -7.8368027062E+00
   -7.8003367219E+00   -7.7641749746E+00   -7.7283145448E+00   -7.6927524068E+00
   -7.6574854384E+00   -7.6225104293E+00   -7.5878240905E+00   -7.5534230627E+00
   -7.5193039252E+00   -7.4854632045E+00   -7.4518973835E+00   -7.4186029106E+00
   -7.3855762090E+00   -7.3528136865E+00   -7.3203117457E+00   -7.2880667940E+00
   -7.2560752548E+00   -7.2243335780E+00   -7.1928382513E+00   -7.1615858115E+00
   -7.1305728552E+00   -7.0997960506E+00   -7.0692521477E+00   -7.0389379888E+00
   -7.0088505183E+00   -6.9789867917E+00   -6.9493439839E+00   -6.9199193958E+00
   -6.8907104610E+00   -6.8617147496E+00   -6.8329299724E+00   -6.8043539822E+00
   -6.7759847740E+00   -6.7478204845E+00   -6.7198593891E+00   -6.6920998974E+00
   -6.6645405483E+00   -6.6371800027E+00   -6.6100170348E+00   -6.5830505238E+00
   -6.5562794428E+00   -6.5297028472E+00   -6.5033198636E+00   -6.4771296761E+00
   -6.4511315140E+00   -6.4253246379E+00   -6.3997083264E+00   -6.3742818628E+00
   -6.3490445208E+00   -6.3239955522E+00   -6.2991341739E+00   -6.2744595564E+00
   -6.2499708102E+00   -6.2256669734E+00   -6.2015470129E+00   -6.1776097997E+00
   -6.1538541075E+00   -6.1302785860E+00   -6.1068817813E+00   -6.0836621395E+00
   -6.0606179964E+00   -6.0377476076E+00   -6.0150491642E+00   -5.9925208047E+00
   -5.9701606403E+00   -5.9479667700E+00   -5.9259373147E+00   -5.9040704258E+00
   -5.8823642802E+00   -5.8608171012E+00   -5.8394271703E+00   -5.8181927967E+00
   -5.7971123240E+00   -5.7761840706E+00   -5.7554063896E+00   -5.7347776491E+00
   -5.7142962557E+00   -5.6939606376E+00   -5.6737692455E+00   -5.6537205513E+00
   -5.6338130468E+00   -5.6140452458E+00   -5.5944156828E+00   -5.5749229128E+00
   -5.5555655107E+00   -5.5363420713E+00   -5.5172512088E+00   -5.4982915563E+00
   -5.4794617657E+00   -5.4607605073E+00   -5.4421864696E+00   -5.4237383586E+00
   -5.4054148982E+00   -5.3872148291E+00   -5.3691369090E+00   -5.3511799125E+00
   -5.3333426302E+00   -5.3156238689E+00   -5.2980224512E+00   -5.2805372152E+00
   -5.2631670144E+00   -5.2459107172E+00   -5.2287672070E+00   -5.2117353814E+00
   -5.1948141527E+00   -5.1780024471E+00   -5.1612992045E+00   -5.1447033788E+00
   -5.1282139370E+00   -5.1118298595E+00   -5.0955501395E+00   -5.0793737832E+00
   -5.0632998092E+00   -5.0473272485E+00   -5.0314551445E+00   -5.0156825523E+00
   -5.0000085391E+00   -4.9844321834E+00   -4.9689525754E+00   -4.9535688165E+00
   -4.9382800192E+00   -4.9230853069E+00   -4.9079838138E+00   -4.8929746847E+00
   -4.8780570746E+00   -4.8632301491E+00   -4.8484930837E+00   -4.8338450640E+00
   -4.8192852853E+00   -4.8048129527E+00   -4.7904272808E+00   -4.7761274934E+00
   -4.7619128237E+00   -4.7477825140E+00   -4.7337358154E+00   -4.7197719881E+00
   -4.7058903008E+00   -4.6920900309E+00   -4.6783704642E+00   -4.6647308947E+00
   -4.6511706250E+00   -4.6376889653E+00   -4.6242852341E+00   -4.6109587576E+00
   -4.5977088699E+00   -4.5845349126E+00   -4.5714362348E+00   -4.5584121931E+00
   -4.5454621515E+00   -4.5325854809E+00   -4.5197815597E+00   -4.5070497731E+00
   -4.4943895130E+00   -4.4818001786E+00   -4.4692811754E+00   -4.4568319158E+00
   -4.4444518184E+00   -4.4321403086E+00   -4.4198968179E+00   -4.4077207843E+00
   -4.3956116516E+00   -4.3835688702E+00   -4.3715918960E+00   -4.3596801912E+00
   -4.3478332237E+00   -4.3360504672E+00   -4.3243314010E+00   -4.3126755100E+00
   -4.3010822850E+00   -4.2895512217E+00   -4.2780818217E+00   -4.2666735915E+00
   -4.2553260432E+00   -4.2440386939E+00   -4.2328110657E+00   -4.2216426861E+00
   -4.2105330871E+00   -4.1994818060E+00   -4.1884883848E+00   -4.1775523703E+00
   -4.1666733139E+00   -4.1558507720E+00   -4.1450843051E+00   -4.1343734788E+00
   -4.1237178626E+00   -4.1131170309E+00   -4.1025705623E+00   -4.0920780396E+00
   -4.0816390499E+00   -4.0712531847E+00   -4.0609200395E+00   -4.0506392138E+00
   -4.0404103113E+00   -4.0302329396E+00   -4.0201067102E+00   -4.0100312388E+00
   -4.0000061446E+00   -3.9900310506E+00   -3.9801055839E+00   -3.9702293748E+00
   -3.9604020578E+00   -3.9506232706E+00   -3.9408926545E+00   -3.9312098547E+00
   -3.9215745194E+00   -3.9119863005E+00   -3.9024448533E+00   -3.8929498364E+00
   -3.8835009116E+00   -3.8740977442E+00   -3.8647400027E+00   -3.8554273586E+00
   -3.8461594867E+00   -3.8369360649E+00   -3.8277567742E+00   -3.8186212986E+00
   -3.8095293252E+00   -3.8004805440E+00   -3.7914746479E+00   -3.7825113328E+00
   -3.7735902974E+00   -3.7647112433E+00   -3.7558738747E+00   -3.7470778989E+00
   -3.7383230258E+00   -3.7296089678E+00   -3.7209354403E+00   -3.7123021610E+00
   -3.7037088506E+00   -3.6951552321E+00   -3.6866410312E+00   -3.6781659759E+00
   -3.6697297970E+00   -3.6613322275E+00   -3.6529730031E+00   -3.6446518617E+00
   -3.6363685435E+00   -3.6281227914E+00   -3.6199143504E+00   -3.6117429677E+00
   -3.6036083931E+00   -3.5955103783E+00   -3.5874486774E+00   -3.5794230468E+00
   -3.5714332448E+00   -3.5634790322E+00   -3.5555601715E+00   -3.5476764278E+00
   -3.5398275679E+00   -3.5320133607E+00   -3.5242335774E+00   -3.5164879908E+00
   -3.5087763762E+00   -3.5010985104E+00   -3.4934541724E+00   -3.4858431431E+00
   -3.4782652051E+00   -3.4707201433E+00   -3.4632077441E+00   -3.4557277958E+00
   -3.4482800887E+00   -3.4408644148E+00   -3.4334805678E+00   -3.4261283432E+00
   -3.4188075385E+00   -3.4115179525E+00   -3.4042593861E+00   -3.3970316416E+00
   -3.3898345232E+00   -3.3826678365E+00   -3.3755313891E+00   -3.3684249899E+00
   -3.3613484495E+00   -3.3543015802E+00   -3.3472841957E+00   -3.3402961114E+00
   -3.3333371441E+00   -3.3264071122E+00   -3.3195058357E+00   -3.3126331360E+00
   -3.3057888358E+00   -3.2989727596E+00   -3.2921847331E+00   -3.2854245836E+00
   -3.2786921396E+00   -3.2719872312E+00   -3.2653096898E+00   -3.2586593482E+00
   -3.2520360406E+00   -3.2454396024E+00   -3.2388698704E+00   -3.2323266829E+00
   -3.2258098792E+00   -3.2193193001E+00   -3.2128547876E+00   -3.2064161851E+00
   -3.2000033369E+00   -3.1936160891E+00   -3.1872542884E+00   -3.1809177832E+00
   -3.1746064230E+00   -3.1683200582E+00   -3.1620585408E+00   -3.1558217237E+00
   -3.1496094611E+00   -3.1434216081E+00   -3.1372580213E+00   -3.1311185582E+00
   -3.1250030774E+00   -3.1189114386E+00   -3.1128435028E+00   -3.1067991318E+00
   -3.1007781887E+00   -3.0947805374E+00   -3.0888060432E+00   -3.0828545721E+00
   -3.0769259913E+00   -3.0710201690E+00   -3.0651369745E+00   -3.0592762778E+00
   -3.0534379503E+00   -3.0476218641E+00   -3.0418278924E+00   -3.0360559091E+00
   -3.0303057895E+00   -3.0245774096E+00   -3.0188706462E+00   -3.0131853772E+00
   -3.0075214815E+00   -3.0018788388E+00   -2.9962573296E+00   -2.9906568354E+00
   -2.9850772386E+00   -2.9795184225E+00   -2.9739802712E+00   -2.9684626697E+00
   -2.9629655037E+00   -2.9574886601E+00   -2.9520320263E+00   -2.9465954906E+00
   -2.9411789422E+00   -2.9357822711E+00   -2.9304053681E+00   -2.9250481248E+00
   -2.9197104335E+00   -2.9143921873E+00   -2.9090932803E+00   -2.9038136071E+00
   -2.8985530633E+00   -2.8933115449E+00   -2.8880889491E+00   -2.8828851734E+00
   -2.8777001165E+00   -2.8725336773E+00   -2.8673857560E+00   -2.8622562530E+00
   -2.8571450696E+00   -2.8520521081E+00   -2.8469772710E+00   -2.8419204618E+00
   -2.8368815845E+00   -2.8318605441E+00   -2.8268572459E+00   -2.8218715961E+00
   -2.8169035014E+00   -2.8119528693E+00   -2.8070196079E+00   -2.8021036259E+00
   -2.7972048327E+00   -2.7923231384E+00   -2.7874584534E+00   -2.7826106891E+00
   -2.7777797574E+00   -2.7729655708E+00   -2.7681680423E+00   -2.7633870856E+00
   -2.7586226150E+00   -2.7538745453E+00   -2.7491427921E+00   -2.7444272714E+00
   -2.7397278998E+00   -2.7350445944E+00   -2.7303772731E+00   -2.7257258541E+00
   -2.7210902563E+00   -2.7164703991E+00   -2.7118662025E+00   -2.7072775870E+00
   -2.7027044735E+00   -2.6981467838E+00   -2.6936044399E+00   -2.6890773644E+00
   -2.6845654805E+00   -2.6800687118E+00   -2.6755869826E+00   -2.6711202174E+00
   -2.6666683414E+00   -2.6622312804E+00   -2.6578089605E+00   -2.6534013084E+00